 Gaussian 16, Revision B.01,
 Gaussian 16:  EM64L-G16RevB.01 20-Dec-2017

 ---------------------
 # CCSD/aug-cc-pVTZ SP
 ---------------------

 --------------------------------------------------
 Single-point energy of X- + Y- at fixed distance R
 --------------------------------------------------
 Symbolic Z-matrix:
 Charge = -2 Multiplicity = 1

                         Standard orientation:
 ---------------------------------------------------------------------
 Center     Atomic      Atomic             Coordinates (Angstroms)
 Number     Number       Type             X           Y           Z
 ---------------------------------------------------------------------
      1          9           0        0.000000    0.000000    1.890000
      2          9           0       -0.000000    1.702000   -0.810000
      3          3           0       -0.000000    0.000000   -0.810000
      4          9           0       -0.000000   -1.702000   -0.810000
 ---------------------------------------------------------------------

 SCF Done:  E(RHF) =  -305.860687663     A.U. after   11 cycles
 E2 =    -0.8757290099D+00 EUMP2 =    -0.30673641667300D+03

 The electronic state is 1-A1.
 Alpha  occ. eigenvalues --  -25.78096 -25.78096 -25.70140  -1.97392  -1.04028
 Alpha  occ. eigenvalues --   -1.03674  -0.94451  -0.16213  -0.15026  -0.14103
 Alpha  occ. eigenvalues --   -0.14067  -0.13642  -0.13613  -0.04913  -0.04888
 Alpha  occ. eigenvalues --   -0.04854
 Alpha virt. eigenvalues --    0.15878   0.16178   0.16430   0.18963   0.28331
 Alpha virt. eigenvalues --    0.28397   0.29097   0.33737   0.35414   0.35902
 Alpha virt. eigenvalues --    0.36192   0.36246   0.38700   0.47904   0.49426

 Mulliken charges:
               1
     1  F   -1.053395
     2  F   -0.994174
     3  Li   1.041742
     4  F   -0.994174
 Sum of Mulliken charges =  -2.00000

 Dipole moment (field-independent basis, Debye):
    X=              0.0000    Y=              0.0000    Z=             -4.6032  Tot=              4.6032
 Quadrupole moment (field-independent basis, Debye-Ang):
   XX=            -21.2971   YY=            -46.9182   ZZ=            -43.8460
   XY=             -0.0000   XZ=             -0.0000   YZ=             -0.0000

 1\1\GINC-HELIOS\SP\RCCSD-FC\Aug-CC-pVTZ\F3Li1(2-)\POHL\03-Jun-2025\0\\
 # CCSD/aug-cc-pVTZ SP\\Single-point energy of X- + Y- at fixed distanc
 e R\\-2,1\F,0,0.,0.,2.7\F,0,-1.702,0.,0.\Li,0,0.,0.,0.\F,0,1.702,0.,0.
 \\Version=EM64L-G16RevB.01\State=1-A1\HF=-305.8606877\MP2=-306.7364167
 \MP3=-306.7080682\MP4D=-306.7251267\MP4DQ=-306.7157729\MP4SDQ=-306.729
 101\CCSD=-306.7215443\RMSD=6.210e-09\PG=C02V [C2(Li1F1),SGV(F2)]\\@

 Normal termination of Gaussian 16 at Tue Jun  3 15:50:18 2025.
