 Gaussian 16, Revision B.01,
 Gaussian 16:  EM64L-G16RevB.01 20-Dec-2017

 -----------------------
 #p opt CCSD/aug-cc-pVTZ
 -----------------------

 --------------------------------------------------
 Single-point energy of X- + Y- at fixed distance R
 --------------------------------------------------
 Symbolic Z-matrix:
 Charge = -1 Multiplicity = 1

 SCF Done:  E(RHF) =  -163.334755809     A.U. after   11 cycles
 E2 =    -0.6544530269D+00 EUMP2 =    -0.16398920883610D+03
 SCF Done:  E(RHF) =  -163.336954561     A.U. after    8 cycles
 E2 =    -0.6512499911D+00 EUMP2 =    -0.16398820455237D+03
 SCF Done:  E(RHF) =  -163.337259221     A.U. after    8 cycles
 E2 =    -0.6507573639D+00 EUMP2 =    -0.16398801658525D+03
 Optimization completed.
    -- Stationary point found.

                         Standard orientation:
 ---------------------------------------------------------------------
 Center     Atomic      Atomic             Coordinates (Angstroms)
 Number     Number       Type             X           Y           Z
 ---------------------------------------------------------------------
      1          7           0        0.000000    0.000000    1.178934
      2          7           0        0.000000    0.000000    0.000000
      3          7           0        0.000000    0.000000   -1.178934
 ---------------------------------------------------------------------

 The electronic state is 1-SGG.
 Alpha  occ. eigenvalues --  -15.51727 -15.33881 -15.33871  -1.21057  -0.99006
 Alpha  occ. eigenvalues --   -0.42683  -0.41900  -0.41900  -0.35540  -0.10532
 Alpha  occ. eigenvalues --   -0.10532
 Alpha virt. eigenvalues --    0.21432   0.22895   0.27021   0.27021   0.29537
 Alpha virt. eigenvalues --    0.30560   0.30560   0.35240   0.36364   0.36364
 Alpha virt. eigenvalues --    0.46169   0.46169   0.46914   0.47021   0.61010

 Mulliken charges:
               1
     1  N   -0.947516
     2  N    0.895032
     3  N   -0.947516
 Sum of Mulliken charges =  -1.00000

 Dipole moment (field-independent basis, Debye):
    X=             -0.0000    Y=              0.0000    Z=              0.0000  Tot=              0.0000
 Quadrupole moment (field-independent basis, Debye-Ang):
   XX=            -19.9330   YY=            -19.9330   ZZ=            -31.3381
   XY=              0.0000   XZ=              0.0000   YZ=              0.0000

 Normal termination of Gaussian 16 at Mon May 26 16:10:31 2025.
