 Gaussian 16, Revision B.01,
 Gaussian 16:  EM64L-G16RevB.01 20-Dec-2017

 ---------------------
 # CCSD/aug-cc-pVTZ SP
 ---------------------

 --------------------------------------------------
 Single-point energy of X- + Y- at fixed distance R
 --------------------------------------------------
 Symbolic Z-matrix:
 Charge = -2 Multiplicity = 1

                         Standard orientation:
 ---------------------------------------------------------------------
 Center     Atomic      Atomic             Coordinates (Angstroms)
 Number     Number       Type             X           Y           Z
 ---------------------------------------------------------------------
      1          9           0        0.000000    0.000000    2.100000
      2          9           0        0.000000    1.702000   -0.900000
      3          3           0        0.000000    0.000000   -0.900000
      4          9           0       -0.000000   -1.702000   -0.900000
 ---------------------------------------------------------------------

 SCF Done:  E(RHF) =  -305.866712735     A.U. after   11 cycles
 E2 =    -0.8751356810D+00 EUMP2 =    -0.30674184841634D+03

 The electronic state is 1-A1.
 Alpha  occ. eigenvalues --  -25.79196 -25.79196 -25.70665  -1.98967  -1.05140
 Alpha  occ. eigenvalues --   -1.04783  -0.94905  -0.17327  -0.16121  -0.15204
 Alpha  occ. eigenvalues --   -0.15138  -0.14742  -0.14686  -0.05374  -0.05370
 Alpha  occ. eigenvalues --   -0.05366
 Alpha virt. eigenvalues --    0.15773   0.16130   0.16381   0.19022   0.28147
 Alpha virt. eigenvalues --    0.28157   0.28756   0.33342   0.35089   0.35897
 Alpha virt. eigenvalues --    0.35961   0.36173   0.38697   0.48327   0.48916

 Mulliken charges:
               1
     1  F   -1.041164
     2  F   -0.990677
     3  Li   1.022519
     4  F   -0.990677
 Sum of Mulliken charges =  -2.00000

 Dipole moment (field-independent basis, Debye):
    X=              0.0000    Y=              0.0000    Z=             -5.2825  Tot=              5.2825
 Quadrupole moment (field-independent basis, Debye-Ang):
   XX=            -21.2659   YY=            -46.6083   ZZ=            -48.6857
   XY=             -0.0000   XZ=             -0.0000   YZ=              0.0000

 1\1\GINC-HELIOS\SP\RCCSD-FC\Aug-CC-pVTZ\F3Li1(2-)\POHL\22-May-2025\0\\
 # CCSD/aug-cc-pVTZ SP\\Single-point energy of X- + Y- at fixed distanc
 e R\\-2,1\F,0,0.,0.,3.\F,0,-1.702,0.,0.\Li,0,0.,0.,0.\F,0,1.702,0.,0.\
 \Version=EM64L-G16RevB.01\State=1-A1\HF=-305.8667127\MP2=-306.7418484\
 MP3=-306.7134874\MP4D=-306.7305244\MP4DQ=-306.7212589\MP4SDQ=-306.7344
 626\CCSD=-306.7269303\RMSD=4.374e-09\PG=C02V [C2(Li1F1),SGV(F2)]\\@

 Normal termination of Gaussian 16 at Thu May 22 13:30:21 2025.
