 Gaussian 16, Revision B.01,
 Gaussian 16:  EM64L-G16RevB.01 20-Dec-2017

 ---------------------
 # CCSD/aug-cc-pVTZ SP
 ---------------------

 --------------------------------------------------
 Single-point energy of X- + Y- at fixed distance R
 --------------------------------------------------
 Symbolic Z-matrix:
 Charge = -2 Multiplicity = 1

                         Standard orientation:
 ---------------------------------------------------------------------
 Center     Atomic      Atomic             Coordinates (Angstroms)
 Number     Number       Type             X           Y           Z
 ---------------------------------------------------------------------
      1          9           0       -0.000000    0.000000    2.940000
      2          9           0        0.000000    1.702000   -1.260000
      3          3           0        0.000000    0.000000   -1.260000
      4          9           0       -0.000000   -1.702000   -1.260000
 ---------------------------------------------------------------------

 SCF Done:  E(RHF) =  -305.890005872     A.U. after   10 cycles
 E2 =    -0.8737434291D+00 EUMP2 =    -0.30676374930147D+03

 The electronic state is 1-A1.
 Alpha  occ. eigenvalues --  -25.82524 -25.82524 -25.72760  -2.03162  -1.08501
 Alpha  occ. eigenvalues --   -1.08141  -0.96963  -0.20689  -0.19466  -0.18549
 Alpha  occ. eigenvalues --   -0.18498  -0.18077  -0.18039  -0.07458  -0.07453
 Alpha  occ. eigenvalues --   -0.07440
 Alpha virt. eigenvalues --    0.15221   0.15915   0.16111   0.19340   0.27095
 Alpha virt. eigenvalues --    0.27164   0.27518   0.31765   0.33751   0.34714
 Alpha virt. eigenvalues --    0.35267   0.35694   0.37697   0.46885   0.46977

 Mulliken charges:
               1
     1  F   -1.009161
     2  F   -0.975237
     3  Li   0.959635
     4  F   -0.975237
 Sum of Mulliken charges =  -2.00000

 Dipole moment (field-independent basis, Debye):
    X=              0.0000    Y=              0.0000    Z=             -7.8095  Tot=              7.8095
 Quadrupole moment (field-independent basis, Debye-Ang):
   XX=            -21.1728   YY=            -45.8972   ZZ=            -72.6525
   XY=             -0.0000   XZ=             -0.0000   YZ=              0.0000

 1\1\GINC-HELIOS\SP\RCCSD-FC\Aug-CC-pVTZ\F3Li1(2-)\POHL\19-May-2025\0\\
 # CCSD/aug-cc-pVTZ SP\\Single-point energy of X- + Y- at fixed distanc
 e R\\-2,1\F,0,0.,0.,4.2\F,0,-1.702,0.,0.\Li,0,0.,0.,0.\F,0,1.702,0.,0.
 \\Version=EM64L-G16RevB.01\State=1-A1\HF=-305.8900059\MP2=-306.7637493
 \MP3=-306.735663\MP4D=-306.7525528\MP4DQ=-306.7434387\MP4SDQ=-306.7562
 665\CCSD=-306.7488904\RMSD=8.045e-09\PG=C02V [C2(Li1F1),SGV(F2)]\\@

 Normal termination of Gaussian 16 at Mon May 19 13:20:35 2025.
