 Gaussian 16, Revision B.01,
 Gaussian 16:  EM64L-G16RevB.01 20-Dec-2017

 ---------------------
 # CCSD/aug-cc-pVTZ SP
 ---------------------

 --------------------------------------------------
 Single-point energy of X- + Y- at fixed distance R
 --------------------------------------------------
 Symbolic Z-matrix:
 Charge = -2 Multiplicity = 1

                         Standard orientation:
 ---------------------------------------------------------------------
 Center     Atomic      Atomic             Coordinates (Angstroms)
 Number     Number       Type             X           Y           Z
 ---------------------------------------------------------------------
      1          9           0       -0.000000    0.000000    3.150000
      2          9           0        0.000000    1.702000   -1.350000
      3          3           0        0.000000    0.000000   -1.350000
      4          9           0       -0.000000   -1.702000   -1.350000
 ---------------------------------------------------------------------

 SCF Done:  E(RHF) =  -305.895159112     A.U. after   10 cycles
 E2 =    -0.8735779844D+00 EUMP2 =    -0.30676873709655D+03

 The electronic state is 1-A1.
 Alpha  occ. eigenvalues --  -25.83156 -25.83156 -25.73239  -2.03891  -1.09137
 Alpha  occ. eigenvalues --   -1.08776  -0.97446  -0.21323  -0.20100  -0.19182
 Alpha  occ. eigenvalues --   -0.19140  -0.18709  -0.18678  -0.07942  -0.07937
 Alpha  occ. eigenvalues --   -0.07926
 Alpha virt. eigenvalues --    0.15091   0.15849   0.16023   0.19434   0.26842
 Alpha virt. eigenvalues --    0.26932   0.27240   0.31386   0.33419   0.34396
 Alpha virt. eigenvalues --    0.34923   0.35558   0.37383   0.46400   0.46444

 Mulliken charges:
               1
     1  F   -1.006673
     2  F   -0.971776
     3  Li   0.950224
     4  F   -0.971776
 Sum of Mulliken charges =  -2.00000

 Dipole moment (field-independent basis, Debye):
    X=              0.0000    Y=              0.0000    Z=             -8.4152  Tot=              8.4152
 Quadrupole moment (field-independent basis, Debye-Ang):
   XX=            -21.1571   YY=            -45.7966   ZZ=            -79.8534
   XY=             -0.0000   XZ=             -0.0000   YZ=              0.0000

 1\1\GINC-HELIOS\SP\RCCSD-FC\Aug-CC-pVTZ\F3Li1(2-)\POHL\19-May-2025\0\\
 # CCSD/aug-cc-pVTZ SP\\Single-point energy of X- + Y- at fixed distanc
 e R\\-2,1\F,0,0.,0.,4.5\F,0,-1.702,0.,0.\Li,0,0.,0.,0.\F,0,1.702,0.,0.
 \\Version=EM64L-G16RevB.01\State=1-A1\HF=-305.8951591\MP2=-306.7687371
 \MP3=-306.7407078\MP4D=-306.7575726\MP4DQ=-306.7484716\MP4SDQ=-306.761
 2457\CCSD=-306.7538978\RMSD=7.314e-09\PG=C02V [C2(Li1F1),SGV(F2)]\\@

 Normal termination of Gaussian 16 at Mon May 19 13:21:34 2025.
