 Gaussian 16, Revision B.01,
 Gaussian 16:  EM64L-G16RevB.01 20-Dec-2017

 ---------------------
 # CCSD/aug-cc-pVTZ SP
 ---------------------

 --------------------------------------------------
 Single-point energy of X- + Y- at fixed distance R
 --------------------------------------------------
 Symbolic Z-matrix:
 Charge = -2 Multiplicity = 1

                         Standard orientation:
 ---------------------------------------------------------------------
 Center     Atomic      Atomic             Coordinates (Angstroms)
 Number     Number       Type             X           Y           Z
 ---------------------------------------------------------------------
      1          9           0       -0.000000    0.000000    3.500000
      2          9           0        0.000000    1.702000   -1.500000
      3          3           0        0.000000    0.000000   -1.500000
      4          9           0       -0.000000   -1.702000   -1.500000
 ---------------------------------------------------------------------

 SCF Done:  E(RHF) =  -305.903000517     A.U. after   10 cycles
 E2 =    -0.8733872810D+00 EUMP2 =    -0.30677638779815D+03

 The electronic state is 1-A1.
 Alpha  occ. eigenvalues --  -25.84079 -25.84079 -25.73978  -2.04930  -1.10065
 Alpha  occ. eigenvalues --   -1.09703  -0.98192  -0.22249  -0.21025  -0.20108
 Alpha  occ. eigenvalues --   -0.20076  -0.19632  -0.19609  -0.08687  -0.08684
 Alpha  occ. eigenvalues --   -0.08677
 Alpha virt. eigenvalues --    0.14892   0.15724   0.15862   0.19578   0.26444
 Alpha virt. eigenvalues --    0.26564   0.26804   0.30778   0.32882   0.33899
 Alpha virt. eigenvalues --    0.34272   0.35177   0.36899   0.45651   0.45653

 Mulliken charges:
               1
     1  F   -1.004181
     2  F   -0.966964
     3  Li   0.938108
     4  F   -0.966964
 Sum of Mulliken charges =  -2.00000

 Dipole moment (field-independent basis, Debye):
    X=              0.0000    Y=             -0.0000    Z=             -9.4134  Tot=              9.4134
 Quadrupole moment (field-independent basis, Debye-Ang):
   XX=            -21.1373   YY=            -45.6682   ZZ=            -92.9559
   XY=             -0.0000   XZ=             -0.0000   YZ=             -0.0000

 1\1\GINC-HELIOS\SP\RCCSD-FC\Aug-CC-pVTZ\F3Li1(2-)\POHL\19-May-2025\0\\
 # CCSD/aug-cc-pVTZ SP\\Single-point energy of X- + Y- at fixed distanc
 e R\\-2,1\F,0,0.,0.,5.\F,0,-1.702,0.,0.\Li,0,0.,0.,0.\F,0,1.702,0.,0.\
 \Version=EM64L-G16RevB.01\State=1-A1\HF=-305.9030005\MP2=-306.7763878\
 MP3=-306.7484302\MP4D=-306.7652646\MP4DQ=-306.7561774\MP4SDQ=-306.7688
 878\CCSD=-306.7615746\RMSD=6.598e-09\PG=C02V [C2(Li1F1),SGV(F2)]\\@

 Normal termination of Gaussian 16 at Mon May 19 13:22:26 2025.
