 Gaussian 16, Revision B.01,
 Gaussian 16:  EM64L-G16RevB.01 20-Dec-2017

 ---------------------
 # CCSD/aug-cc-pVTZ SP
 ---------------------

 --------------------------------------------------
 Single-point energy of X- + Y- at fixed distance R
 --------------------------------------------------
 Symbolic Z-matrix:
 Charge = -2 Multiplicity = 1

                         Standard orientation:
 ---------------------------------------------------------------------
 Center     Atomic      Atomic             Coordinates (Angstroms)
 Number     Number       Type             X           Y           Z
 ---------------------------------------------------------------------
      1          9           0       -0.000000    0.000000    3.850000
      2          9           0        0.000000    1.702000   -1.650000
      3          3           0        0.000000   -0.000000   -1.650000
      4          9           0       -0.000000   -1.702000   -1.650000
 ---------------------------------------------------------------------

 SCF Done:  E(RHF) =  -305.909942846     A.U. after   10 cycles
 E2 =    -0.8732690683D+00 EUMP2 =    -0.30678321191438D+03

 The electronic state is 1-A1.
 Alpha  occ. eigenvalues --  -25.84868 -25.84868 -25.74642  -2.05797  -1.10857
 Alpha  occ. eigenvalues --   -1.10495  -0.98862  -0.23040  -0.21815  -0.20898
 Alpha  occ. eigenvalues --   -0.20874  -0.20421  -0.20404  -0.09356  -0.09354
 Alpha  occ. eigenvalues --   -0.09351
 Alpha virt. eigenvalues --    0.14714   0.15580   0.15688   0.19661   0.26071
 Alpha virt. eigenvalues --    0.26219   0.26399   0.30204   0.32373   0.33429
 Alpha virt. eigenvalues --    0.33535   0.34585   0.36403   0.44967   0.45003

 Mulliken charges:
               1
     1  F   -1.002688
     2  F   -0.962931
     3  Li   0.928550
     4  F   -0.962931
 Sum of Mulliken charges =  -2.00000

 Dipole moment (field-independent basis, Debye):
    X=              0.0000    Y=             -0.0000    Z=            -10.4021  Tot=             10.4021
 Quadrupole moment (field-independent basis, Debye-Ang):
   XX=            -21.1238   YY=            -45.5755   ZZ=           -107.4462
   XY=             -0.0000   XZ=             -0.0000   YZ=              0.0000

 1\1\GINC-HELIOS\SP\RCCSD-FC\Aug-CC-pVTZ\F3Li1(2-)\POHL\19-May-2025\0\\
 # CCSD/aug-cc-pVTZ SP\\Single-point energy of X- + Y- at fixed distanc
 e R\\-2,1\F,0,0.,0.,5.5\F,0,-1.702,0.,0.\Li,0,0.,0.,0.\F,0,1.702,0.,0.
 \\Version=EM64L-G16RevB.01\State=1-A1\HF=-305.9099428\MP2=-306.7832119
 \MP3=-306.7553006\MP4D=-306.7721164\MP4DQ=-306.7630367\MP4SDQ=-306.775
 7085\CCSD=-306.7684167\RMSD=6.249e-09\PG=C02V [C2(Li1F1),SGV(F2)]\\@

 Normal termination of Gaussian 16 at Mon May 19 13:23:19 2025.
