 Gaussian 16, Revision B.01,
 Gaussian 16:  EM64L-G16RevB.01 20-Dec-2017

 ---------------------
 # CCSD/aug-cc-pVTZ SP
 ---------------------

 --------------------------------------------------
 Single-point energy of X- + Y- at fixed distance R
 --------------------------------------------------
 Symbolic Z-matrix:
 Charge = -2 Multiplicity = 1

                         Standard orientation:
 ---------------------------------------------------------------------
 Center     Atomic      Atomic             Coordinates (Angstroms)
 Number     Number       Type             X           Y           Z
 ---------------------------------------------------------------------
      1          9           0       -0.000000    0.000000    4.200000
      2          9           0        0.000000    1.702000   -1.800000
      3          3           0        0.000000    0.000000   -1.800000
      4          9           0       -0.000000   -1.702000   -1.800000
 ---------------------------------------------------------------------

 SCF Done:  E(RHF) =  -305.916073714     A.U. after   10 cycles
 E2 =    -0.8731966049D+00 EUMP2 =    -0.30678927031917D+03

 The electronic state is 1-A1.
 Alpha  occ. eigenvalues --  -25.85548 -25.85548 -25.75236  -2.06532  -1.11539
 Alpha  occ. eigenvalues --   -1.11177  -0.99460  -0.23720  -0.22495  -0.21579
 Alpha  occ. eigenvalues --   -0.21561  -0.21101  -0.21088  -0.09953  -0.09952
 Alpha  occ. eigenvalues --   -0.09951
 Alpha virt. eigenvalues --    0.14552   0.15422   0.15508   0.19626   0.25732
 Alpha virt. eigenvalues --    0.25895   0.26022   0.29664   0.31899   0.32773
 Alpha virt. eigenvalues --    0.32963   0.33864   0.35649   0.44364   0.44367

 Mulliken charges:
               1
     1  F   -1.001699
     2  F   -0.959515
     3  Li   0.920730
     4  F   -0.959515
 Sum of Mulliken charges =  -2.00000

 Dipole moment (field-independent basis, Debye):
    X=              0.0000    Y=              0.0000    Z=            -11.3846  Tot=             11.3846
 Quadrupole moment (field-independent basis, Debye-Ang):
   XX=            -21.1147   YY=            -45.5075   ZZ=           -123.3331
   XY=             -0.0000   XZ=             -0.0000   YZ=              0.0000

 1\1\GINC-HELIOS\SP\RCCSD-FC\Aug-CC-pVTZ\F3Li1(2-)\POHL\19-May-2025\0\\
 # CCSD/aug-cc-pVTZ SP\\Single-point energy of X- + Y- at fixed distanc
 e R\\-2,1\F,0,0.,0.,6.\F,0,-1.702,0.,0.\Li,0,0.,0.,0.\F,0,1.702,0.,0.\
 \Version=EM64L-G16RevB.01\State=1-A1\HF=-305.9160737\MP2=-306.7892703\
 MP3=-306.7613866\MP4D=-306.7781921\MP4DQ=-306.7691164\MP4SDQ=-306.7817
 667\CCSD=-306.7744867\RMSD=6.078e-09\PG=C02V [C2(Li1F1),SGV(F2)]\\@

 Normal termination of Gaussian 16 at Mon May 19 13:24:11 2025.
