 Gaussian 16, Revision B.01,
 Gaussian 16:  EM64L-G16RevB.01 20-Dec-2017

 ---------------------
 # CCSD/aug-cc-pVTZ SP
 ---------------------

 --------------------------------------------------
 Single-point energy of X- + Y- at fixed distance R
 --------------------------------------------------
 Symbolic Z-matrix:
 Charge = -2 Multiplicity = 1

                         Standard orientation:
 ---------------------------------------------------------------------
 Center     Atomic      Atomic             Coordinates (Angstroms)
 Number     Number       Type             X           Y           Z
 ---------------------------------------------------------------------
      1          9           0        0.000000    0.000000    1.750000
      2          9           0       -0.000000    1.702000   -0.750000
      3          3           0       -0.000000    0.000000   -0.750000
      4          9           0       -0.000000   -1.702000   -0.750000
 ---------------------------------------------------------------------

 SCF Done:  E(RHF) =  -305.856703368     A.U. after   11 cycles
 E2 =    -0.8761370886D+00 EUMP2 =    -0.30673284045679D+03

 The electronic state is 1-A1.
 Alpha  occ. eigenvalues --  -25.77288 -25.77288 -25.69797  -1.96150  -1.03214
 Alpha  occ. eigenvalues --   -1.02863  -0.94202  -0.15398  -0.14236  -0.13308
 Alpha  occ. eigenvalues --   -0.13302  -0.12859  -0.12837  -0.04650  -0.04601
 Alpha  occ. eigenvalues --   -0.04517
 Alpha virt. eigenvalues --    0.15906   0.16209   0.16460   0.18918   0.28321
 Alpha virt. eigenvalues --    0.28561   0.29329   0.33983   0.35623   0.35898
 Alpha virt. eigenvalues --    0.36273   0.36275   0.38494   0.47354   0.49765

 Mulliken charges:
               1
     1  F   -1.050117
     2  F   -0.998844
     3  Li   1.047805
     4  F   -0.998844
 Sum of Mulliken charges =  -2.00000

 Dipole moment (field-independent basis, Debye):
    X=              0.0000    Y=             -0.0000    Z=             -4.1353  Tot=              4.1353
 Quadrupole moment (field-independent basis, Debye-Ang):
   XX=            -21.3201   YY=            -47.1714   ZZ=            -40.8576
   XY=             -0.0000   XZ=             -0.0000   YZ=             -0.0000

 1\1\GINC-HELIOS\SP\RCCSD-FC\Aug-CC-pVTZ\F3Li1(2-)\POHL\20-May-2025\0\\
 # CCSD/aug-cc-pVTZ SP\\Single-point energy of X- + Y- at fixed distanc
 e R\\-2,1\F,0,0.,0.,2.5\F,0,-1.702,0.,0.\Li,0,0.,0.,0.\F,0,1.702,0.,0.
 \\Version=EM64L-G16RevB.01\State=1-A1\HF=-305.8567034\MP2=-306.7328405
 \MP3=-306.7045759\MP4D=-306.7216261\MP4DQ=-306.7121972\MP4SDQ=-306.725
 6002\CCSD=-306.7180453\RMSD=8.139e-09\PG=C02V [C2(Li1F1),SGV(F2)]\\@

 Normal termination of Gaussian 16 at Tue May 20 14:33:41 2025.
