 Gaussian 16, Revision B.01,
 Gaussian 16:  EM64L-G16RevB.01 20-Dec-2017

 ---------------------
 # CCSD/aug-cc-pVTZ SP
 ---------------------

 --------------------------------------------------
 Single-point energy of X- + Y- at fixed distance R
 --------------------------------------------------
 Symbolic Z-matrix:
 Charge = -2 Multiplicity = 1

                         Standard orientation:
 ---------------------------------------------------------------------
 Center     Atomic      Atomic             Coordinates (Angstroms)
 Number     Number       Type             X           Y           Z
 ---------------------------------------------------------------------
      1          9           0        0.000000    0.000000    1.540000
      2          9           0       -0.000000    1.702000   -0.660000
      3          3           0       -0.000000    0.000000   -0.660000
      4          9           0       -0.000000   -1.702000   -0.660000
 ---------------------------------------------------------------------

 SCF Done:  E(RHF) =  -305.850393148     A.U. after   12 cycles
 E2 =    -0.8766324403D+00 EUMP2 =    -0.30672702558786D+03

 The electronic state is 1-A1.
 Alpha  occ. eigenvalues --  -25.75962 -25.75962 -25.69271  -1.93918  -1.01888
 Alpha  occ. eigenvalues --   -1.01549  -0.93959  -0.14088  -0.13005  -0.12122
 Alpha  occ. eigenvalues --   -0.12015  -0.11738  -0.11527  -0.04344  -0.04243
 Alpha  occ. eigenvalues --   -0.03961
 Alpha virt. eigenvalues --    0.15855   0.16255   0.16501   0.18782   0.28078
 Alpha virt. eigenvalues --    0.28800   0.29680   0.34279   0.35872   0.35919
 Alpha virt. eigenvalues --    0.36129   0.36286   0.37879   0.46949   0.50263

 Mulliken charges:
               1
     1  F   -1.011019
     2  F   -1.009315
     3  Li   1.029648
     4  F   -1.009315
 Sum of Mulliken charges =  -2.00000

 Dipole moment (field-independent basis, Debye):
    X=              0.0000    Y=              0.0000    Z=             -3.4177  Tot=              3.4177
 Quadrupole moment (field-independent basis, Debye-Ang):
   XX=            -21.3534   YY=            -47.6391   ZZ=            -36.7467
   XY=             -0.0000   XZ=             -0.0000   YZ=             -0.0000

 1\1\GINC-HELIOS\SP\RCCSD-FC\Aug-CC-pVTZ\F3Li1(2-)\POHL\21-May-2025\0\\
 # CCSD/aug-cc-pVTZ SP\\Single-point energy of X- + Y- at fixed distanc
 e R\\-2,1\F,0,0.,0.,2.2\F,0,-1.702,0.,0.\Li,0,0.,0.,0.\F,0,1.702,0.,0.
 \\Version=EM64L-G16RevB.01\State=1-A1\HF=-305.8503931\MP2=-306.7270256
 \MP3=-306.6990784\MP4D=-306.7160591\MP4DQ=-306.706493\MP4SDQ=-306.7199
 886\CCSD=-306.7124688\RMSD=3.159e-09\PG=C02V [C2(Li1F1),SGV(F2)]\\@

 Normal termination of Gaussian 16 at Wed May 21 11:20:00 2025.
