 Gaussian 16, Revision B.01,
 Gaussian 16:  EM64L-G16RevB.01 20-Dec-2017

 ---------------------
 # CCSD/aug-cc-pVTZ SP
 ---------------------

 --------------------------------------------------
 Single-point energy of X- + Y- at fixed distance R
 --------------------------------------------------
 Symbolic Z-matrix:
 Charge = -1 Multiplicity = 1

                         Standard orientation:
 ---------------------------------------------------------------------
 Center     Atomic      Atomic             Coordinates (Angstroms)
 Number     Number       Type             X           Y           Z
 ---------------------------------------------------------------------
      1          9           0        0.000000    0.000000    1.702000
      2          3           0        0.000000    0.000000    0.000000
      3          9           0        0.000000    0.000000   -1.702000
 ---------------------------------------------------------------------

 SCF Done:  E(RHF) =  -206.547039245     A.U. after    9 cycles
 E2 =    -0.5780037973D+00 EUMP2 =    -0.20712504304263D+03

 The electronic state is 1-SGG.
 Alpha  occ. eigenvalues --  -25.93964 -25.93964  -2.15127  -1.19957  -1.19594
 Alpha  occ. eigenvalues --   -0.32131  -0.30906  -0.29993  -0.29993  -0.29511
 Alpha  occ. eigenvalues --   -0.29511
 Alpha virt. eigenvalues --    0.09434   0.09434   0.09528   0.09996   0.18924
 Alpha virt. eigenvalues --    0.18924   0.18994   0.20423   0.23379   0.23379
 Alpha virt. eigenvalues --    0.24262   0.24262   0.25401   0.36234   0.36234

 Mulliken charges:
               1
     1  F   -0.946666
     2  Li   0.893332
     3  F   -0.946666
 Sum of Mulliken charges =  -1.00000

 Dipole moment (field-independent basis, Debye):
    X=             -0.0000    Y=              0.0000    Z=             -0.0000  Tot=              0.0000
 Quadrupole moment (field-independent basis, Debye-Ang):
   XX=            -13.9181   YY=            -13.9181   ZZ=            -38.0805
   XY=             -0.0000   XZ=              0.0000   YZ=              0.0000

 1\1\GINC-HELIOS\SP\RCCSD-FC\Aug-CC-pVTZ\F2Li1(1-)\POHL\26-May-2025\0\\
 # CCSD/aug-cc-pVTZ SP\\Single-point energy of X- + Y- at fixed distanc
 e R\\-1,1\F,0,-1.702,0.,0.\Li,0,0.,0.,0.\F,0,1.702,0.,0.\\Version=EM64
 L-G16RevB.01\State=1-SGG\HF=-206.5470392\MP2=-207.125043\MP3=-207.1090
 673\MP4D=-207.1194392\MP4DQ=-207.1134452\MP4SDQ=-207.1208532\CCSD=-207
 .1168546\RMSD=9.953e-09\PG=D*H [O(Li1),C*(F1.F1)]\\@

 Normal termination of Gaussian 16 at Mon May 26 15:23:39 2025.
