 Gaussian 16, Revision B.01,
 Gaussian 16:  EM64L-G16RevB.01 20-Dec-2017

 ---------------------------------------------------------
 #P MP2(Full,FullDirect)/6-311++G(d,p) Opt Units=Angstroms
 ---------------------------------------------------------

 (Enter /opt/g16/l101.exe)

 Symbolic Z-matrix:
 Charge = -2 Multiplicity = 1

 SCF Done:  E(RHF) =  -75.4006032823     A.U. after   13 cycles
 E2 =    -0.3250330786D+00 EUMP2 =    -0.75725636360919D+02
 SCF Done:  E(RHF) =  -75.4012498773     A.U. after   10 cycles
 E2 =    -0.3244705923D+00 EUMP2 =    -0.75725720469595D+02
 SCF Done:  E(RHF) =  -75.4012707467     A.U. after    8 cycles
 E2 =    -0.3244498330D+00 EUMP2 =    -0.75725720579675D+02
 Optimization completed.
    -- Stationary point found.

                         Standard orientation:
 ---------------------------------------------------------------------
 Center     Atomic      Atomic             Coordinates (Angstroms)
 Number     Number       Type             X           Y           Z
 ---------------------------------------------------------------------
      1          6           0        0.000000    0.000000    0.645753
      2          6           0        0.000000    0.000000   -0.645753
 ---------------------------------------------------------------------

 The electronic state is 1-SGG.
 Alpha  occ. eigenvalues --  -10.76231 -10.76004  -0.49721  -0.03169   0.08226
 Alpha  occ. eigenvalues --    0.11111   0.11111
 Alpha virt. eigenvalues --    0.38609   0.43234   0.43762   0.43762   0.45940
 Alpha virt. eigenvalues --    0.45940   0.51292   0.56698   0.69923   0.69923
 Alpha virt. eigenvalues --    0.95796   1.08784   1.16820   1.16820   1.27941

 Mulliken charges:
               1
     1  C   -1.000000
     2  C   -1.000000
 Sum of Mulliken charges =  -2.00000

 Dipole moment (field-independent basis, Debye):
    X=             -0.0000    Y=              0.0000    Z=             -0.0000  Tot=              0.0000
 Quadrupole moment (field-independent basis, Debye-Ang):
   XX=            -25.7190   YY=            -25.7190   ZZ=            -34.4011
   XY=              0.0000   XZ=              0.0000   YZ=             -0.0000

 Normal termination of Gaussian 16 at Mon Feb  3 15:47:51 2025.
