 Gaussian 16, Revision B.01,
 Gaussian 16:  EM64L-G16RevB.01 20-Dec-2017

 ---------------------
 # CCSD/aug-cc-pVTZ SP
 ---------------------

 --------------------------------------------------
 Single-point energy of X- + Y- at fixed distance R
 --------------------------------------------------
 Symbolic Z-matrix:
 Charge = -2 Multiplicity = 1

                         Standard orientation:
 ---------------------------------------------------------------------
 Center     Atomic      Atomic             Coordinates (Angstroms)
 Number     Number       Type             X           Y           Z
 ---------------------------------------------------------------------
      1          9           0       -0.000000    0.000000    2.240000
      2          8           0        0.000000    1.261000   -0.960000
      3          5           0        0.000000    0.000000   -0.960000
      4          8           0       -0.000000   -1.261000   -0.960000
 ---------------------------------------------------------------------

 SCF Done:  E(RHF) =  -273.929964112     A.U. after   12 cycles
 E2 =    -0.8800355430D+00 EUMP2 =    -0.27480999965500D+03

 The electronic state is 1-A1.
 Alpha  occ. eigenvalues --  -25.70294 -20.13832 -20.13830  -7.22859  -0.94532
 Alpha  occ. eigenvalues --   -0.90287  -0.89487  -0.22784  -0.20114  -0.15226
 Alpha  occ. eigenvalues --   -0.15032  -0.06184  -0.06071  -0.04993  -0.04915
 Alpha  occ. eigenvalues --   -0.04816
 Alpha virt. eigenvalues --    0.25224   0.26066   0.26519   0.31617   0.41128
 Alpha virt. eigenvalues --    0.42289   0.44602   0.45238   0.45863   0.46546
 Alpha virt. eigenvalues --    0.47506   0.50698   0.50775   0.56866   0.57052

 Mulliken charges:
               1
     1  F   -1.019401
     2  O   -0.812288
     3  B    0.643977
     4  O   -0.812288
 Sum of Mulliken charges =  -2.00000

 Dipole moment (field-independent basis, Debye):
    X=              0.0000    Y=              0.0000    Z=             -5.3845  Tot=              5.3845
 Quadrupole moment (field-independent basis, Debye-Ang):
   XX=            -25.3105   YY=            -39.9772   ZZ=            -57.0946
   XY=             -0.0000   XZ=             -0.0000   YZ=              0.0000

 Normal termination of Gaussian 16 at Mon May 26 13:36:41 2025.
