 Gaussian 16, Revision B.01,
 Gaussian 16:  EM64L-G16RevB.01 20-Dec-2017

 ---------------------
 # CCSD/aug-cc-pVTZ SP
 ---------------------

 --------------------------------------------------
 Single-point energy of X- + Y- at fixed distance R
 --------------------------------------------------
 Symbolic Z-matrix:
 Charge = -2 Multiplicity = 1

                         Standard orientation:
 ---------------------------------------------------------------------
 Center     Atomic      Atomic             Coordinates (Angstroms)
 Number     Number       Type             X           Y           Z
 ---------------------------------------------------------------------
      1          9           0       -0.000000    0.000000    2.520000
      2          8           0        0.000000    1.261000   -1.080000
      3          5           0        0.000000    0.000000   -1.080000
      4          8           0       -0.000000   -1.261000   -1.080000
 ---------------------------------------------------------------------

 SCF Done:  E(RHF) =  -273.940289663     A.U. after   11 cycles
 E2 =    -0.8793841472D+00 EUMP2 =    -0.27481967381031D+03

 The electronic state is 1-A1.
 Alpha  occ. eigenvalues --  -25.71138 -20.15172 -20.15170  -7.24163  -0.95339
 Alpha  occ. eigenvalues --   -0.91639  -0.90827  -0.24089  -0.21394  -0.16560
 Alpha  occ. eigenvalues --   -0.16366  -0.07387  -0.07355  -0.05821  -0.05790
 Alpha  occ. eigenvalues --   -0.05787
 Alpha virt. eigenvalues --    0.24843   0.25803   0.26192   0.31380   0.40722
 Alpha virt. eigenvalues --    0.41808   0.43995   0.44834   0.45184   0.46456
 Alpha virt. eigenvalues --    0.46937   0.49774   0.50289   0.56395   0.56750

 Mulliken charges:
               1
     1  F   -1.012010
     2  O   -0.797748
     3  B    0.607505
     4  O   -0.797748
 Sum of Mulliken charges =  -2.00000

 Dipole moment (field-independent basis, Debye):
    X=              0.0000    Y=              0.0000    Z=             -6.3018  Tot=              6.3018
 Quadrupole moment (field-independent basis, Debye-Ang):
   XX=            -25.2391   YY=            -39.7294   ZZ=            -64.5064
   XY=             -0.0000   XZ=             -0.0000   YZ=             -0.0000

 Normal termination of Gaussian 16 at Mon May 26 13:37:28 2025.
