 Gaussian 16, Revision B.01,
 Gaussian 16:  EM64L-G16RevB.01 20-Dec-2017

 ---------------------
 # CCSD/aug-cc-pVTZ SP
 ---------------------

 --------------------------------------------------
 Single-point energy of X- + Y- at fixed distance R
 --------------------------------------------------
 Symbolic Z-matrix:
 Charge = -2 Multiplicity = 1

                         Standard orientation:
 ---------------------------------------------------------------------
 Center     Atomic      Atomic             Coordinates (Angstroms)
 Number     Number       Type             X           Y           Z
 ---------------------------------------------------------------------
      1          9           0       -0.000000    0.000000    2.800000
      2          8           0        0.000000    1.261000   -1.200000
      3          5           0        0.000000   -0.000000   -1.200000
      4          8           0       -0.000000   -1.261000   -1.200000
 ---------------------------------------------------------------------

 SCF Done:  E(RHF) =  -273.949517114     A.U. after   11 cycles
 E2 =    -0.8790053227D+00 EUMP2 =    -0.27482852243629D+03

 The electronic state is 1-A1.
 Alpha  occ. eigenvalues --  -25.71936 -20.16305 -20.16303  -7.25276  -0.96134
 Alpha  occ. eigenvalues --   -0.92784  -0.91964  -0.25202  -0.22488  -0.17695
 Alpha  occ. eigenvalues --   -0.17532  -0.08505  -0.08456  -0.06624  -0.06619
 Alpha  occ. eigenvalues --   -0.06602
 Alpha virt. eigenvalues --    0.24489   0.25553   0.25866   0.31026   0.40326
 Alpha virt. eigenvalues --    0.41289   0.43415   0.44374   0.44467   0.46385
 Alpha virt. eigenvalues --    0.46419   0.48750   0.49715   0.55738   0.55815

 Mulliken charges:
               1
     1  F   -1.007510
     2  O   -0.785759
     3  B    0.579028
     4  O   -0.785759
 Sum of Mulliken charges =  -2.00000

 Dipole moment (field-independent basis, Debye):
    X=              0.0000    Y=             -0.0000    Z=             -7.1761  Tot=              7.1761
 Quadrupole moment (field-independent basis, Debye-Ang):
   XX=            -25.1874   YY=            -39.5520   ZZ=            -72.7982
   XY=             -0.0000   XZ=             -0.0000   YZ=              0.0000

 Normal termination of Gaussian 16 at Mon May 26 13:38:23 2025.
