 Gaussian 16, Revision B.01,
 Gaussian 16:  EM64L-G16RevB.01 20-Dec-2017

 ---------------------
 # CCSD/aug-cc-pVTZ SP
 ---------------------

 --------------------------------------------------
 Single-point energy of X- + Y- at fixed distance R
 --------------------------------------------------
 Symbolic Z-matrix:
 Charge = -2 Multiplicity = 1

                         Standard orientation:
 ---------------------------------------------------------------------
 Center     Atomic      Atomic             Coordinates (Angstroms)
 Number     Number       Type             X           Y           Z
 ---------------------------------------------------------------------
      1          9           0       -0.000000    0.000000    2.940000
      2          8           0        0.000000    1.261000   -1.260000
      3          5           0        0.000000   -0.000000   -1.260000
      4          8           0       -0.000000   -1.261000   -1.260000
 ---------------------------------------------------------------------

 SCF Done:  E(RHF) =  -273.953765227     A.U. after   11 cycles
 E2 =    -0.8788810766D+00 EUMP2 =    -0.27483264630334D+03

 The electronic state is 1-A1.
 Alpha  occ. eigenvalues --  -25.72314 -20.16809 -20.16807  -7.25772  -0.96515
 Alpha  occ. eigenvalues --   -0.93292  -0.92469  -0.25698  -0.22976  -0.18199
 Alpha  occ. eigenvalues --   -0.18054  -0.09003  -0.08956  -0.07005  -0.07004
 Alpha  occ. eigenvalues --   -0.06987
 Alpha virt. eigenvalues --    0.24324   0.25432   0.25705   0.30821   0.40130
 Alpha virt. eigenvalues --    0.41023   0.43137   0.44112   0.44145   0.46113
 Alpha virt. eigenvalues --    0.46386   0.48225   0.49384   0.55376   0.55418

 Mulliken charges:
               1
     1  F   -1.006023
     2  O   -0.781461
     3  B    0.568946
     4  O   -0.781461
 Sum of Mulliken charges =  -2.00000

 Dipole moment (field-independent basis, Debye):
    X=              0.0000    Y=             -0.0000    Z=             -7.6027  Tot=              7.6027
 Quadrupole moment (field-independent basis, Debye-Ang):
   XX=            -25.1672   YY=            -39.4826   ZZ=            -77.2782
   XY=             -0.0000   XZ=             -0.0000   YZ=              0.0000

 Normal termination of Gaussian 16 at Mon May 26 13:39:13 2025.
