 Gaussian 16, Revision B.01,
 Gaussian 16:  EM64L-G16RevB.01 20-Dec-2017

 ---------------------
 # CCSD/aug-cc-pVTZ SP
 ---------------------

 --------------------------------------------------
 Single-point energy of X- + Y- at fixed distance R
 --------------------------------------------------
 Symbolic Z-matrix:
 Charge = -1 Multiplicity = 1

                         Standard orientation:
 ---------------------------------------------------------------------
 Center     Atomic      Atomic             Coordinates (Angstroms)
 Number     Number       Type             X           Y           Z
 ---------------------------------------------------------------------
      1          8           0        0.000000    0.000000    1.261000
      2          5           0        0.000000    0.000000    0.000000
      3          8           0        0.000000    0.000000   -1.261000
 ---------------------------------------------------------------------

 SCF Done:  E(RHF) =  -174.616031181     A.U. after   10 cycles
 E2 =    -0.5835389973D+00 EUMP2 =    -0.17519957017780D+03

 The electronic state is 1-SGG.
 Alpha  occ. eigenvalues --  -20.28628 -20.28626  -7.37524  -1.05136  -1.04295
 Alpha  occ. eigenvalues --   -0.37445  -0.34671  -0.30013  -0.30013  -0.20770
 Alpha  occ. eigenvalues --   -0.20770
 Alpha virt. eigenvalues --    0.16630   0.16630   0.16701   0.17622   0.30676
 Alpha virt. eigenvalues --    0.30970   0.33285   0.33285   0.33987   0.35645
 Alpha virt. eigenvalues --    0.35645   0.36433   0.36433   0.44467   0.44467

 Mulliken charges:
               1
     1  O   -0.744308
     2  B    0.488617
     3  O   -0.744308
 Sum of Mulliken charges =  -1.00000

 Dipole moment (field-independent basis, Debye):
    X=             -0.0000    Y=              0.0000    Z=             -0.0000  Tot=              0.0000
 Quadrupole moment (field-independent basis, Debye-Ang):
   XX=            -17.8669   YY=            -17.8669   ZZ=            -31.7914
   XY=              0.0000   XZ=              0.0000   YZ=              0.0000

 Normal termination of Gaussian 16 at Mon May 26 15:30:30 2025.
