 Gaussian 16, Revision B.01,
 Gaussian 16:  EM64L-G16RevB.01 20-Dec-2017

 ---------------------
 # CCSD/aug-cc-pVTZ SP
 ---------------------

 --------------------------------------------------
 Single-point energy of X- + Y- at fixed distance R
 --------------------------------------------------
 Symbolic Z-matrix:
 Charge = -2 Multiplicity = 1

                         Standard orientation:
 ---------------------------------------------------------------------
 Center     Atomic      Atomic             Coordinates (Angstroms)
 Number     Number       Type             X           Y           Z
 ---------------------------------------------------------------------
      1          9           0       -0.000000    0.000000    1.890000
      2          8           0        0.000000    1.261000   -0.810000
      3          5           0        0.000000    0.000000   -0.810000
      4          8           0       -0.000000   -1.261000   -0.810000
 ---------------------------------------------------------------------

 SCF Done:  E(RHF) =  -273.914574541     A.U. after   12 cycles
 E2 =    -0.8815197227D+00 EUMP2 =    -0.27479609426393D+03

 The electronic state is 1-A1.
 Alpha  occ. eigenvalues --  -25.69244 -20.11746 -20.11744  -7.20887  -0.93697
 Alpha  occ. eigenvalues --   -0.88196  -0.87437  -0.20812  -0.18169  -0.13277
 Alpha  occ. eigenvalues --   -0.13205  -0.05172  -0.04055  -0.04046  -0.03644
 Alpha  occ. eigenvalues --   -0.02929
 Alpha virt. eigenvalues --    0.25741   0.26419   0.26925   0.31673   0.41677
 Alpha virt. eigenvalues --    0.42833   0.45390   0.45545   0.46580   0.47021
 Alpha virt. eigenvalues --    0.48262   0.51259   0.51680   0.56957   0.57755

 Mulliken charges:
               1
     1  F   -1.023551
     2  O   -0.828671
     3  B    0.680893
     4  O   -0.828671
 Sum of Mulliken charges =  -2.00000

 Dipole moment (field-independent basis, Debye):
    X=              0.0000    Y=              0.0000    Z=             -4.1225  Tot=              4.1225
 Quadrupole moment (field-independent basis, Debye-Ang):
   XX=            -25.4368   YY=            -40.4497   ZZ=            -49.0416
   XY=             -0.0000   XZ=             -0.0000   YZ=             -0.0000

 Normal termination of Gaussian 16 at Tue May 27 14:11:28 2025.
