 Gaussian 16, Revision B.01,
 Gaussian 16:  EM64L-G16RevB.01 20-Dec-2017

 ---------------------
 # CCSD/aug-cc-pVTZ SP
 ---------------------

 --------------------------------------------------
 Single-point energy of X- + Y- at fixed distance R
 --------------------------------------------------
 Symbolic Z-matrix:
 Charge = -2 Multiplicity = 1

                         Standard orientation:
 ---------------------------------------------------------------------
 Center     Atomic      Atomic             Coordinates (Angstroms)
 Number     Number       Type             X           Y           Z
 ---------------------------------------------------------------------
      1          9           0        0.000000    0.000000    1.017857
      2          9           0       -0.000000    1.139000   -0.482143
      3          1           0       -0.000000    0.000000   -0.482143
      4          9           0       -0.000000   -1.139000   -0.482143
 ---------------------------------------------------------------------

 SCF Done:  E(RHF) =  -298.697262155     A.U. after   14 cycles
 E2 =    -0.8959684144D+00 EUMP2 =    -0.29959323056900D+03

 The electronic state is 1-A1.
 Alpha  occ. eigenvalues --  -25.71813 -25.71811 -25.60855  -1.04522  -0.98398
 Alpha  occ. eigenvalues --   -0.87442  -0.24952  -0.11649  -0.11416  -0.10946
 Alpha  occ. eigenvalues --   -0.07419  -0.05726   0.02810   0.06687   0.07280
 Alpha virt. eigenvalues --    0.32780   0.43114   0.48724   0.50076   0.52195
 Alpha virt. eigenvalues --    0.59365   0.59602   0.59862   0.62603   0.64477
 Alpha virt. eigenvalues --    0.65718   0.77077   0.82449   0.82587   0.86804

 Mulliken charges:
               1
     1  F   -1.009034
     2  F   -0.752588
     3  H    0.514209
     4  F   -0.752588
 Sum of Mulliken charges =  -2.00000

 Dipole moment (field-independent basis, Debye):
    X=              0.0000    Y=              0.0000    Z=             -2.0264  Tot=              2.0264
 Quadrupole moment (field-independent basis, Debye-Ang):
   XX=            -20.3062   YY=            -31.6423   ZZ=            -30.3244
   XY=             -0.0000   XZ=             -0.0000   YZ=             -0.0000

 Normal termination of Gaussian 16 at Thu May  8 14:39:00 2025.
