 Gaussian 16, Revision B.01,
 Gaussian 16:  EM64L-G16RevB.01 20-Dec-2017

 ---------------------
 # CCSD/aug-cc-pVTZ SP
 ---------------------

 --------------------------------------------------
 Single-point energy of X- + Y- at fixed distance R
 --------------------------------------------------
 Symbolic Z-matrix:
 Charge = -2 Multiplicity = 1

                         Standard orientation:
 ---------------------------------------------------------------------
 Center     Atomic      Atomic             Coordinates (Angstroms)
 Number     Number       Type             X           Y           Z
 ---------------------------------------------------------------------
      1          9           0       -0.000000    0.000000    1.357143
      2          9           0        0.000000    1.139000   -0.642857
      3          1           0        0.000000    0.000000   -0.642857
      4          9           0       -0.000000   -1.139000   -0.642857
 ---------------------------------------------------------------------

 SCF Done:  E(RHF) =  -298.811105453     A.U. after   12 cycles
 E2 =    -0.8844892808D+00 EUMP2 =    -0.29969559473403D+03

 The electronic state is 1-A1.
 Alpha  occ. eigenvalues --  -25.75323 -25.75320 -25.64069  -1.05652  -1.00938
 Alpha  occ. eigenvalues --   -0.89023  -0.26575  -0.13365  -0.12922  -0.10893
 Alpha  occ. eigenvalues --   -0.10189  -0.08287   0.00810   0.01435   0.01916
 Alpha virt. eigenvalues --    0.32315   0.42718   0.49076   0.49500   0.51341
 Alpha virt. eigenvalues --    0.58922   0.59264   0.59448   0.61911   0.63824
 Alpha virt. eigenvalues --    0.65043   0.75036   0.80721   0.81982   0.84817

 Mulliken charges:
               1
     1  F   -1.026578
     2  F   -0.758119
     3  H    0.542815
     4  F   -0.758119
 Sum of Mulliken charges =  -2.00000

 Dipole moment (field-independent basis, Debye):
    X=              0.0000    Y=             -0.0000    Z=             -3.1231  Tot=              3.1231
 Quadrupole moment (field-independent basis, Debye-Ang):
   XX=            -20.1831   YY=            -30.3738   ZZ=            -34.3537
   XY=             -0.0000   XZ=             -0.0000   YZ=              0.0000

 Normal termination of Gaussian 16 at Thu May  8 14:39:38 2025.
