 Gaussian 16, Revision B.01,
 Gaussian 16:  EM64L-G16RevB.01 20-Dec-2017

 ---------------------
 # CCSD/aug-cc-pVTZ SP
 ---------------------

 --------------------------------------------------
 Single-point energy of X- + Y- at fixed distance R
 --------------------------------------------------
 Symbolic Z-matrix:
 Charge = -2 Multiplicity = 1

                         Standard orientation:
 ---------------------------------------------------------------------
 Center     Atomic      Atomic             Coordinates (Angstroms)
 Number     Number       Type             X           Y           Z
 ---------------------------------------------------------------------
      1          9           0       -0.000000    0.000000    4.071429
      2          9           0        0.000000    1.139000   -1.928571
      3          1           0        0.000000   -0.000000   -1.928571
      4          9           0       -0.000000   -1.139000   -1.928571
 ---------------------------------------------------------------------

 SCF Done:  E(RHF) =  -298.942848046     A.U. after   10 cycles
 E2 =    -0.8754359731D+00 EUMP2 =    -0.29981828401934D+03

 The electronic state is 1-A1.
 Alpha  occ. eigenvalues --  -25.87158 -25.87155 -25.74860  -1.17381  -1.12662
 Alpha  occ. eigenvalues --   -0.99086  -0.38301  -0.24525  -0.24495  -0.21879
 Alpha  occ. eigenvalues --   -0.21861  -0.19802  -0.09577  -0.09577  -0.09577
 Alpha virt. eigenvalues --    0.27933   0.38247   0.43585   0.43762   0.44640
 Alpha virt. eigenvalues --    0.51267   0.51599   0.52573   0.53605   0.53774
 Alpha virt. eigenvalues --    0.55880   0.59711   0.63080   0.70588   0.71111

 Mulliken charges:
               1
     1  F   -1.000194
     2  F   -0.756773
     3  H    0.513740
     4  F   -0.756773
 Sum of Mulliken charges =  -2.00000

 Dipole moment (field-independent basis, Debye):
    X=              0.0000    Y=              0.0000    Z=            -10.2274  Tot=             10.2274
 Quadrupole moment (field-independent basis, Debye-Ang):
   XX=            -19.7602   YY=            -28.9635   ZZ=           -118.9939
   XY=             -0.0000   XZ=             -0.0000   YZ=              0.0000

 Normal termination of Gaussian 16 at Thu May  8 14:44:15 2025.
