 Gaussian 16, Revision B.01,
 Gaussian 16:  EM64L-G16RevB.01 20-Dec-2017

 ---------------------
 # CCSD/aug-cc-pVTZ SP
 ---------------------

 --------------------------------------------------
 Single-point energy of X- + Y- at fixed distance R
 --------------------------------------------------
 Symbolic Z-matrix:
 Charge = -2 Multiplicity = 1

                         Standard orientation:
 ---------------------------------------------------------------------
 Center     Atomic      Atomic             Coordinates (Angstroms)
 Number     Number       Type             X           Y           Z
 ---------------------------------------------------------------------
      1          9           0        0.000000    0.000000    4.750000
      2          9           0        0.000000    1.139000   -2.250000
      3          1           0        0.000000    0.000000   -2.250000
      4          9           0       -0.000000   -1.139000   -2.250000
 ---------------------------------------------------------------------

 SCF Done:  E(RHF) =  -298.954387848     A.U. after   10 cycles
 E2 =    -0.8753966412D+00 EUMP2 =    -0.29982978448951D+03

 The electronic state is 1-A1.
 Alpha  occ. eigenvalues --  -25.88325 -25.88323 -25.75999  -1.18555  -1.13831
 Alpha  occ. eigenvalues --   -1.00229  -0.39472  -0.25694  -0.25675  -0.23045
 Alpha  occ. eigenvalues --   -0.23034  -0.20964  -0.10721  -0.10721  -0.10720
 Alpha virt. eigenvalues --    0.26939   0.37388   0.42674   0.42743   0.43537
 Alpha virt. eigenvalues --    0.50570   0.50790   0.51478   0.51702   0.51929
 Alpha virt. eigenvalues --    0.54711   0.57268   0.61943   0.69458   0.69810

 Mulliken charges:
               1
     1  F   -1.000026
     2  F   -0.755975
     3  H    0.511976
     4  F   -0.755975
 Sum of Mulliken charges =  -2.00000

 Dipole moment (field-independent basis, Debye):
    X=              0.0000    Y=              0.0000    Z=            -11.9585  Tot=             11.9585
 Quadrupole moment (field-independent basis, Debye-Ang):
   XX=            -19.7512   YY=            -28.9259   ZZ=           -153.9736
   XY=             -0.0000   XZ=             -0.0000   YZ=              0.0000

 Normal termination of Gaussian 16 at Thu May  8 14:44:42 2025.
