 Gaussian 16, Revision B.01,
 Gaussian 16:  EM64L-G16RevB.01 20-Dec-2017

 ---------------------
 # CCSD/aug-cc-pVTZ SP
 ---------------------

 --------------------------------------------------
 Single-point energy of X- + Y- at fixed distance R
 --------------------------------------------------
 Symbolic Z-matrix:
 Charge = -2 Multiplicity = 1

                         Standard orientation:
 ---------------------------------------------------------------------
 Center     Atomic      Atomic             Coordinates (Angstroms)
 Number     Number       Type             X           Y           Z
 ---------------------------------------------------------------------
      1          9           0        0.000000   -0.000000    6.378571
      2          9           0        0.000000    1.139000   -3.021429
      3          1           0        0.000000    0.000000   -3.021429
      4          9           0       -0.000000   -1.139000   -3.021429
 ---------------------------------------------------------------------

 SCF Done:  E(RHF) =  -298.972660724     A.U. after   10 cycles
 E2 =    -0.8753720161D+00 EUMP2 =    -0.29984803273995D+03

 The electronic state is 1-A1.
 Alpha  occ. eigenvalues --  -25.90166 -25.90164 -25.77814  -1.20402  -1.15675
 Alpha  occ. eigenvalues --   -1.02046  -0.41317  -0.27535  -0.27528  -0.24885
 Alpha  occ. eigenvalues --   -0.24881  -0.22799  -0.12539  -0.12538  -0.12538
 Alpha virt. eigenvalues --    0.25125   0.35882   0.41040   0.41077   0.41578
 Alpha virt. eigenvalues --    0.48875   0.49068   0.49744   0.49749   0.49861
 Alpha virt. eigenvalues --    0.53331   0.54216   0.60160   0.67658   0.67796

 Mulliken charges:
               1
     1  F   -0.999999
     2  F   -0.755297
     3  H    0.510594
     4  F   -0.755297
 Sum of Mulliken charges =  -2.00000

 Dipole moment (field-independent basis, Debye):
    X=              0.0000    Y=             -0.0000    Z=            -16.0974  Tot=             16.0974
 Quadrupole moment (field-independent basis, Debye-Ang):
   XX=            -19.7421   YY=            -28.8869   ZZ=           -260.1998
   XY=             -0.0000   XZ=             -0.0000   YZ=              0.0000

 Normal termination of Gaussian 16 at Thu May  8 14:45:05 2025.
