 Gaussian 16, Revision B.01,
 Gaussian 16:  EM64L-G16RevB.01 20-Dec-2017

 ---------------------
 # CCSD/aug-cc-pVTZ SP
 ---------------------

 --------------------------------------------------
 Single-point energy of X- + Y- at fixed distance R
 --------------------------------------------------
 Symbolic Z-matrix:
 Charge = -2 Multiplicity = 1

                         Standard orientation:
 ---------------------------------------------------------------------
 Center     Atomic      Atomic             Coordinates (Angstroms)
 Number     Number       Type             X           Y           Z
 ---------------------------------------------------------------------
      1          9           0        0.000000    0.000000    5.767857
      2          9           0        0.000000    1.139000   -2.732143
      3          1           0        0.000000   -0.000000   -2.732143
      4          9           0       -0.000000   -1.139000   -2.732143
 ---------------------------------------------------------------------

 SCF Done:  E(RHF) =  -298.966951489     A.U. after   10 cycles
 E2 =    -0.8753765435D+00 EUMP2 =    -0.29984232803273D+03

 The electronic state is 1-A1.
 Alpha  occ. eigenvalues --  -25.89592 -25.89590 -25.77246  -1.19826  -1.15100
 Alpha  occ. eigenvalues --   -1.01477  -0.40742  -0.26961  -0.26950  -0.24311
 Alpha  occ. eigenvalues --   -0.24305  -0.22226  -0.11970  -0.11969  -0.11969
 Alpha virt. eigenvalues --    0.25694   0.36370   0.41580   0.41594   0.42229
 Alpha virt. eigenvalues --    0.49412   0.49664   0.50291   0.50300   0.50405
 Alpha virt. eigenvalues --    0.53868   0.54953   0.60718   0.68222   0.68407

 Mulliken charges:
               1
     1  F   -0.999998
     2  F   -0.755442
     3  H    0.510882
     4  F   -0.755442
 Sum of Mulliken charges =  -2.00000

 Dipole moment (field-independent basis, Debye):
    X=              0.0000    Y=              0.0000    Z=            -14.5473  Tot=             14.5473
 Quadrupole moment (field-independent basis, Debye-Ang):
   XX=            -19.7444   YY=            -28.8967   ZZ=           -216.6888
   XY=             -0.0000   XZ=             -0.0000   YZ=              0.0000

 Normal termination of Gaussian 16 at Wed May  7 12:29:22 2025.
