 Gaussian 16, Revision B.01,
 Gaussian 16:  EM64L-G16RevB.01 20-Dec-2017

 ---------------------
 # CCSD/aug-cc-pVTZ SP
 ---------------------

 --------------------------------------------------
 Single-point energy of X- + Y- at fixed distance R
 --------------------------------------------------
 Symbolic Z-matrix:
 Charge = -2 Multiplicity = 1

                         Standard orientation:
 ---------------------------------------------------------------------
 Center     Atomic      Atomic             Coordinates (Angstroms)
 Number     Number       Type             X           Y           Z
 ---------------------------------------------------------------------
      1          9           0        0.000000    0.000000    6.107143
      2          9           0        0.000000    1.139000   -2.892857
      3          1           0        0.000000    0.000000   -2.892857
      4          9           0       -0.000000   -1.139000   -2.892857
 ---------------------------------------------------------------------

 SCF Done:  E(RHF) =  -298.970257759     A.U. after   10 cycles
 E2 =    -0.8753736416D+00 EUMP2 =    -0.29984563140105D+03

 The electronic state is 1-A1.
 Alpha  occ. eigenvalues --  -25.89925 -25.89922 -25.77574  -1.20159  -1.15433
 Alpha  occ. eigenvalues --   -1.01806  -0.41075  -0.27294  -0.27285  -0.24644
 Alpha  occ. eigenvalues --   -0.24639  -0.22558  -0.12299  -0.12299  -0.12298
 Alpha virt. eigenvalues --    0.25364   0.36089   0.41268   0.41297   0.41851
 Alpha virt. eigenvalues --    0.49101   0.49319   0.49975   0.49981   0.50093
 Alpha virt. eigenvalues --    0.53566   0.54504   0.60395   0.67896   0.68052

 Mulliken charges:
               1
     1  F   -0.999999
     2  F   -0.755352
     3  H    0.510704
     4  F   -0.755352
 Sum of Mulliken charges =  -2.00000

 Dipole moment (field-independent basis, Debye):
    X=              0.0000    Y=             -0.0000    Z=            -15.4087  Tot=             15.4087
 Quadrupole moment (field-independent basis, Debye-Ang):
   XX=            -19.7430   YY=            -28.8908   ZZ=           -240.3176
   XY=             -0.0000   XZ=             -0.0000   YZ=              0.0000

 Normal termination of Gaussian 16 at Wed May  7 12:29:45 2025.
