 Gaussian 16, Revision B.01,
 Gaussian 16:  EM64L-G16RevB.01 20-Dec-2017

 ---------------------
 # CCSD/aug-cc-pVTZ SP
 ---------------------

 --------------------------------------------------
 Single-point energy of X- + Y- at fixed distance R
 --------------------------------------------------
 Symbolic Z-matrix:
 Charge = -2 Multiplicity = 1

                         Standard orientation:
 ---------------------------------------------------------------------
 Center     Atomic      Atomic             Coordinates (Angstroms)
 Number     Number       Type             X           Y           Z
 ---------------------------------------------------------------------
      1          9           0        0.000000    0.000000    6.446429
      2          9           0        0.000000    1.139000   -3.053571
      3          1           0        0.000000    0.000000   -3.053571
      4          9           0       -0.000000   -1.139000   -3.053571
 ---------------------------------------------------------------------

 SCF Done:  E(RHF) =  -298.973231166     A.U. after   10 cycles
 E2 =    -0.8753716839D+00 EUMP2 =    -0.29984860285037D+03

 The electronic state is 1-A1.
 Alpha  occ. eigenvalues --  -25.90224 -25.90222 -25.77870  -1.20459  -1.15732
 Alpha  occ. eigenvalues --   -1.02103  -0.41374  -0.27593  -0.27585  -0.24943
 Alpha  occ. eigenvalues --   -0.24938  -0.22856  -0.12596  -0.12595  -0.12595
 Alpha virt. eigenvalues --    0.25068   0.35833   0.40986   0.41024   0.41514
 Alpha virt. eigenvalues --    0.48821   0.49008   0.49689   0.49694   0.49805
 Alpha virt. eigenvalues --    0.53274   0.54151   0.60104   0.67602   0.67736

 Mulliken charges:
               1
     1  F   -0.999999
     2  F   -0.755285
     3  H    0.510570
     4  F   -0.755285
 Sum of Mulliken charges =  -2.00000

 Dipole moment (field-independent basis, Debye):
    X=              0.0000    Y=             -0.0000    Z=            -16.2695  Tot=             16.2695
 Quadrupole moment (field-independent basis, Debye-Ang):
   XX=            -19.7419   YY=            -28.8860   ZZ=           -265.3063
   XY=             -0.0000   XZ=             -0.0000   YZ=             -0.0000

 Normal termination of Gaussian 16 at Wed May  7 12:30:10 2025.
