 Gaussian 16, Revision B.01,
 Gaussian 16:  EM64L-G16RevB.01 20-Dec-2017

 ---------------------
 # CCSD/aug-cc-pVTZ SP
 ---------------------

 --------------------------------------------------
 Single-point energy of X- + Y- at fixed distance R
 --------------------------------------------------
 Symbolic Z-matrix:
 Charge = -2 Multiplicity = 1

                         Standard orientation:
 ---------------------------------------------------------------------
 Center     Atomic      Atomic             Coordinates (Angstroms)
 Number     Number       Type             X           Y           Z
 ---------------------------------------------------------------------
      1          9           0       -0.000000    0.000000    6.785714
      2          9           0        0.000000    1.139000   -3.214286
      3          1           0        0.000000   -0.000000   -3.214286
      4          9           0       -0.000000   -1.139000   -3.214286
 ---------------------------------------------------------------------

 SCF Done:  E(RHF) =  -298.975918754     A.U. after   10 cycles
 E2 =    -0.8753703666D+00 EUMP2 =    -0.29985128912074D+03

 The electronic state is 1-A1.
 Alpha  occ. eigenvalues --  -25.90494 -25.90492 -25.78138  -1.20730  -1.16002
 Alpha  occ. eigenvalues --   -1.02370  -0.41645  -0.27863  -0.27856  -0.25213
 Alpha  occ. eigenvalues --   -0.25209  -0.23125  -0.12864  -0.12863  -0.12863
 Alpha virt. eigenvalues --    0.24799   0.35597   0.40729   0.40774   0.41215
 Alpha virt. eigenvalues --    0.48565   0.48728   0.49430   0.49433   0.49539
 Alpha virt. eigenvalues --    0.53004   0.53857   0.59841   0.67336   0.67452

 Mulliken charges:
               1
     1  F   -1.000000
     2  F   -0.755233
     3  H    0.510466
     4  F   -0.755233
 Sum of Mulliken charges =  -2.00000

 Dipole moment (field-independent basis, Debye):
    X=              0.0000    Y=              0.0000    Z=            -17.1299  Tot=             17.1299
 Quadrupole moment (field-independent basis, Debye-Ang):
   XX=            -19.7411   YY=            -28.8821   ZZ=           -291.6542
   XY=             -0.0000   XZ=             -0.0000   YZ=              0.0000

 Normal termination of Gaussian 16 at Wed May  7 12:30:36 2025.
