 Gaussian 16, Revision B.01,
 Gaussian 16:  EM64L-G16RevB.01 20-Dec-2017

 ---------------------
 # CCSD/aug-cc-pVTZ SP
 ---------------------

 --------------------------------------------------
 Single-point energy of X- + Y- at fixed distance R
 --------------------------------------------------
 Symbolic Z-matrix:
 Charge = -2 Multiplicity = 1

                         Standard orientation:
 ---------------------------------------------------------------------
 Center     Atomic      Atomic             Coordinates (Angstroms)
 Number     Number       Type             X           Y           Z
 ---------------------------------------------------------------------
      1          9           0       -0.000000    0.000000    7.125000
      2          9           0        0.000000    1.139000   -3.375000
      3          1           0        0.000000    0.000000   -3.375000
      4          9           0       -0.000000   -1.139000   -3.375000
 ---------------------------------------------------------------------

 SCF Done:  E(RHF) =  -298.978359256     A.U. after   10 cycles
 E2 =    -0.8753694829D+00 EUMP2 =    -0.29985372873880D+03

 The electronic state is 1-A1.
 Alpha  occ. eigenvalues --  -25.90739 -25.90737 -25.78381  -1.20975  -1.16248
 Alpha  occ. eigenvalues --   -1.02614  -0.41890  -0.28108  -0.28103  -0.25458
 Alpha  occ. eigenvalues --   -0.25455  -0.23370  -0.13107  -0.13106  -0.13106
 Alpha virt. eigenvalues --    0.24554   0.35381   0.40495   0.40545   0.40947
 Alpha virt. eigenvalues --    0.48332   0.48474   0.49194   0.49196   0.49293
 Alpha virt. eigenvalues --    0.52758   0.53600   0.59602   0.67095   0.67195

 Mulliken charges:
               1
     1  F   -1.000000
     2  F   -0.755192
     3  H    0.510384
     4  F   -0.755192
 Sum of Mulliken charges =  -2.00000

 Dipole moment (field-independent basis, Debye):
    X=              0.0000    Y=              0.0000    Z=            -17.9899  Tot=             17.9899
 Quadrupole moment (field-independent basis, Debye-Ang):
   XX=            -19.7403   YY=            -28.8789   ZZ=           -319.3605
   XY=             -0.0000   XZ=             -0.0000   YZ=             -0.0000

 Normal termination of Gaussian 16 at Wed May  7 12:31:04 2025.
