 Gaussian 16, Revision B.01,
 Gaussian 16:  EM64L-G16RevB.01 20-Dec-2017

 ---------------------
 # CCSD/aug-cc-pVTZ SP
 ---------------------

 --------------------------------------------------
 Single-point energy of X- + Y- at fixed distance R
 --------------------------------------------------
 Symbolic Z-matrix:
 Charge = -2 Multiplicity = 1

                         Standard orientation:
 ---------------------------------------------------------------------
 Center     Atomic      Atomic             Coordinates (Angstroms)
 Number     Number       Type             X           Y           Z
 ---------------------------------------------------------------------
      1          9           0       -0.000000    0.000000    7.464286
      2          9           0        0.000000    1.139000   -3.535714
      3          1           0        0.000000    0.000000   -3.535714
      4          9           0       -0.000000   -1.139000   -3.535714
 ---------------------------------------------------------------------

 SCF Done:  E(RHF) =  -298.980584815     A.U. after   10 cycles
 E2 =    -0.8753688939D+00 EUMP2 =    -0.29985595370930D+03

 The electronic state is 1-A1.
 Alpha  occ. eigenvalues --  -25.90963 -25.90961 -25.78603  -1.21199  -1.16471
 Alpha  occ. eigenvalues --   -1.02836  -0.42114  -0.28332  -0.28327  -0.25681
 Alpha  occ. eigenvalues --   -0.25678  -0.23593  -0.13329  -0.13328  -0.13328
 Alpha virt. eigenvalues --    0.24331   0.35181   0.40281   0.40332   0.40706
 Alpha virt. eigenvalues --    0.48119   0.48244   0.48978   0.48980   0.49067
 Alpha virt. eigenvalues --    0.52533   0.53369   0.59383   0.66874   0.66962

 Mulliken charges:
               1
     1  F   -1.000000
     2  F   -0.755159
     3  H    0.510318
     4  F   -0.755159
 Sum of Mulliken charges =  -2.00000

 Dipole moment (field-independent basis, Debye):
    X=              0.0000    Y=             -0.0000    Z=            -18.8496  Tot=             18.8496
 Quadrupole moment (field-independent basis, Debye-Ang):
   XX=            -19.7397   YY=            -28.8762   ZZ=           -348.4249
   XY=             -0.0000   XZ=             -0.0000   YZ=             -0.0000

 Normal termination of Gaussian 16 at Wed May  7 12:31:32 2025.
