 Gaussian 16, Revision B.01,
 Gaussian 16:  EM64L-G16RevB.01 20-Dec-2017

 ---------------------
 # CCSD/aug-cc-pVTZ SP
 ---------------------

 --------------------------------------------------
 Single-point energy of X- + Y- at fixed distance R
 --------------------------------------------------
 Symbolic Z-matrix:
 Charge = -2 Multiplicity = 1

                         Standard orientation:
 ---------------------------------------------------------------------
 Center     Atomic      Atomic             Coordinates (Angstroms)
 Number     Number       Type             X           Y           Z
 ---------------------------------------------------------------------
      1          9           0       -0.000000    0.000000    1.696429
      2          9           0        0.000000    1.139000   -0.803571
      3          1           0        0.000000    0.000000   -0.803571
      4          9           0       -0.000000   -1.139000   -0.803571
 ---------------------------------------------------------------------

 SCF Done:  E(RHF) =  -298.851473078     A.U. after   12 cycles
 E2 =    -0.8799871039D+00 EUMP2 =    -0.29973146018184D+03

 The electronic state is 1-A1.
 Alpha  occ. eigenvalues --  -25.78047 -25.78045 -25.66582  -1.08135  -1.03493
 Alpha  occ. eigenvalues --   -0.90887  -0.29067  -0.15395  -0.15364  -0.12764
 Alpha  occ. eigenvalues --   -0.12756  -0.10791  -0.01297  -0.01218  -0.01040
 Alpha virt. eigenvalues --    0.31763   0.42226   0.48473   0.49642   0.50205
 Alpha virt. eigenvalues --    0.57861   0.59004   0.59184   0.60648   0.62354
 Alpha virt. eigenvalues --    0.63874   0.73010   0.78849   0.81094   0.81811

 Mulliken charges:
               1
     1  F   -1.020282
     2  F   -0.769902
     3  H    0.560087
     4  F   -0.769902
 Sum of Mulliken charges =  -2.00000

 Dipole moment (field-independent basis, Debye):
    X=              0.0000    Y=             -0.0000    Z=             -4.0611  Tot=              4.0611
 Quadrupole moment (field-independent basis, Debye-Ang):
   XX=            -20.0396   YY=            -29.8501   ZZ=            -40.0379
   XY=             -0.0000   XZ=             -0.0000   YZ=             -0.0000

 Normal termination of Gaussian 16 at Thu May  8 14:40:11 2025.
