 Gaussian 16, Revision B.01,
 Gaussian 16:  EM64L-G16RevB.01 20-Dec-2017

 ---------------------
 # CCSD/aug-cc-pVTZ SP
 ---------------------

 --------------------------------------------------
 Single-point energy of X- + Y- at fixed distance R
 --------------------------------------------------
 Symbolic Z-matrix:
 Charge = -2 Multiplicity = 1

                         Standard orientation:
 ---------------------------------------------------------------------
 Center     Atomic      Atomic             Coordinates (Angstroms)
 Number     Number       Type             X           Y           Z
 ---------------------------------------------------------------------
      1          9           0       -0.000000    0.000000    7.803571
      2          9           0        0.000000    1.139000   -3.696429
      3          1           0        0.000000    0.000000   -3.696429
      4          9           0       -0.000000   -1.139000   -3.696429
 ---------------------------------------------------------------------

 SCF Done:  E(RHF) =  -298.982622308     A.U. after   10 cycles
 E2 =    -0.8753685066D+00 EUMP2 =    -0.29985799081468D+03

 The electronic state is 1-A1.
 Alpha  occ. eigenvalues --  -25.91167 -25.91165 -25.78806  -1.21404  -1.16676
 Alpha  occ. eigenvalues --   -1.03039  -0.42318  -0.28536  -0.28532  -0.25885
 Alpha  occ. eigenvalues --   -0.25883  -0.23797  -0.13532  -0.13532  -0.13532
 Alpha virt. eigenvalues --    0.24127   0.34997   0.40085   0.40136   0.40488
 Alpha virt. eigenvalues --    0.47923   0.48033   0.48780   0.48781   0.48859
 Alpha virt. eigenvalues --    0.52328   0.53159   0.59183   0.66672   0.66749

 Mulliken charges:
               1
     1  F   -1.000000
     2  F   -0.755132
     3  H    0.510264
     4  F   -0.755132
 Sum of Mulliken charges =  -2.00000

 Dipole moment (field-independent basis, Debye):
    X=              0.0000    Y=              0.0000    Z=            -19.7090  Tot=             19.7090
 Quadrupole moment (field-independent basis, Debye-Ang):
   XX=            -19.7392   YY=            -28.8740   ZZ=           -378.8469
   XY=             -0.0000   XZ=             -0.0000   YZ=             -0.0000

 Normal termination of Gaussian 16 at Wed May  7 12:32:00 2025.
