 Gaussian 16, Revision B.01,
 Gaussian 16:  EM64L-G16RevB.01 20-Dec-2017

 ---------------------
 # CCSD/aug-cc-pVTZ SP
 ---------------------

 --------------------------------------------------
 Single-point energy of X- + Y- at fixed distance R
 --------------------------------------------------
 Symbolic Z-matrix:
 Charge = -2 Multiplicity = 1

                         Standard orientation:
 ---------------------------------------------------------------------
 Center     Atomic      Atomic             Coordinates (Angstroms)
 Number     Number       Type             X           Y           Z
 ---------------------------------------------------------------------
      1          9           0        0.000000   -0.000000    8.142857
      2          9           0        0.000000    1.139000   -3.857143
      3          1           0        0.000000    0.000000   -3.857143
      4          9           0       -0.000000   -1.139000   -3.857143
 ---------------------------------------------------------------------

 SCF Done:  E(RHF) =  -298.984494362     A.U. after   10 cycles
 E2 =    -0.8753682587D+00 EUMP2 =    -0.29985986262102D+03

 The electronic state is 1-A1.
 Alpha  occ. eigenvalues --  -25.91355 -25.91353 -25.78993  -1.21592  -1.16864
 Alpha  occ. eigenvalues --   -1.03226  -0.42506  -0.28724  -0.28720  -0.26073
 Alpha  occ. eigenvalues --   -0.26071  -0.23985  -0.13719  -0.13719  -0.13719
 Alpha virt. eigenvalues --    0.23939   0.34826   0.39903   0.39955   0.40290
 Alpha virt. eigenvalues --    0.47742   0.47840   0.48597   0.48598   0.48669
 Alpha virt. eigenvalues --    0.52140   0.52967   0.58999   0.66486   0.66555

 Mulliken charges:
               1
     1  F   -1.000000
     2  F   -0.755110
     3  H    0.510220
     4  F   -0.755110
 Sum of Mulliken charges =  -2.00000

 Dipole moment (field-independent basis, Debye):
    X=              0.0000    Y=              0.0000    Z=            -20.5682  Tot=             20.5682
 Quadrupole moment (field-independent basis, Debye-Ang):
   XX=            -19.7388   YY=            -28.8721   ZZ=           -410.6260
   XY=             -0.0000   XZ=             -0.0000   YZ=              0.0000

 Normal termination of Gaussian 16 at Wed May  7 12:32:28 2025.
