 Gaussian 16, Revision B.01,
 Gaussian 16:  EM64L-G16RevB.01 20-Dec-2017

 ---------------------
 # CCSD/aug-cc-pVTZ SP
 ---------------------

 --------------------------------------------------
 Single-point energy of X- + Y- at fixed distance R
 --------------------------------------------------
 Symbolic Z-matrix:
 Charge = -2 Multiplicity = 1

                         Standard orientation:
 ---------------------------------------------------------------------
 Center     Atomic      Atomic             Coordinates (Angstroms)
 Number     Number       Type             X           Y           Z
 ---------------------------------------------------------------------
      1          9           0        0.000000    0.000000    8.482143
      2          9           0        0.000000    1.139000   -4.017857
      3          1           0        0.000000    0.000000   -4.017857
      4          9           0       -0.000000   -1.139000   -4.017857
 ---------------------------------------------------------------------

 SCF Done:  E(RHF) =  -298.986220156     A.U. after   10 cycles
 E2 =    -0.8753681079D+00 EUMP2 =    -0.29986158826356D+03

 The electronic state is 1-A1.
 Alpha  occ. eigenvalues --  -25.91528 -25.91526 -25.79165  -1.21766  -1.17037
 Alpha  occ. eigenvalues --   -1.03398  -0.42680  -0.28897  -0.28894  -0.26246
 Alpha  occ. eigenvalues --   -0.26245  -0.24158  -0.13891  -0.13891  -0.13891
 Alpha virt. eigenvalues --    0.23766   0.34667   0.39736   0.39786   0.40110
 Alpha virt. eigenvalues --    0.47575   0.47662   0.48428   0.48429   0.48493
 Alpha virt. eigenvalues --    0.51967   0.52791   0.58829   0.66315   0.66376

 Mulliken charges:
               1
     1  F   -1.000000
     2  F   -0.755091
     3  H    0.510183
     4  F   -0.755091
 Sum of Mulliken charges =  -2.00000

 Dipole moment (field-independent basis, Debye):
    X=              0.0000    Y=              0.0000    Z=            -21.4273  Tot=             21.4273
 Quadrupole moment (field-independent basis, Debye-Ang):
   XX=            -19.7385   YY=            -28.8705   ZZ=           -443.7620
   XY=             -0.0000   XZ=             -0.0000   YZ=              0.0000

 Normal termination of Gaussian 16 at Wed May  7 12:32:57 2025.
