 Gaussian 16, Revision B.01,
 Gaussian 16:  EM64L-G16RevB.01 20-Dec-2017

 ---------------------
 # CCSD/aug-cc-pVTZ SP
 ---------------------

 --------------------------------------------------
 Single-point energy of X- + Y- at fixed distance R
 --------------------------------------------------
 Symbolic Z-matrix:
 Charge = -2 Multiplicity = 1

                         Standard orientation:
 ---------------------------------------------------------------------
 Center     Atomic      Atomic             Coordinates (Angstroms)
 Number     Number       Type             X           Y           Z
 ---------------------------------------------------------------------
      1          9           0        0.000000    0.000000    8.821429
      2          9           0        0.000000    1.139000   -4.178571
      3          1           0        0.000000    0.000000   -4.178571
      4          9           0       -0.000000   -1.139000   -4.178571
 ---------------------------------------------------------------------

 SCF Done:  E(RHF) =  -298.987816041     A.U. after   10 cycles
 E2 =    -0.8753680253D+00 EUMP2 =    -0.29986318406582D+03

 The electronic state is 1-A1.
 Alpha  occ. eigenvalues --  -25.91688 -25.91686 -25.79325  -1.21926  -1.17197
 Alpha  occ. eigenvalues --   -1.03558  -0.42840  -0.29057  -0.29054  -0.26406
 Alpha  occ. eigenvalues --   -0.26405  -0.24317  -0.14051  -0.14050  -0.14050
 Alpha virt. eigenvalues --    0.23606   0.34520   0.39581   0.39628   0.39944
 Alpha virt. eigenvalues --    0.47420   0.47498   0.48272   0.48273   0.48330
 Alpha virt. eigenvalues --    0.51806   0.52628   0.58672   0.66157   0.66210

 Mulliken charges:
               1
     1  F   -1.000000
     2  F   -0.755076
     3  H    0.510152
     4  F   -0.755076
 Sum of Mulliken charges =  -2.00000

 Dipole moment (field-independent basis, Debye):
    X=              0.0000    Y=              0.0000    Z=            -22.2862  Tot=             22.2862
 Quadrupole moment (field-independent basis, Debye-Ang):
   XX=            -19.7382   YY=            -28.8692   ZZ=           -478.2546
   XY=             -0.0000   XZ=             -0.0000   YZ=              0.0000

 Normal termination of Gaussian 16 at Wed May  7 12:33:23 2025.
