 Gaussian 16, Revision B.01,
 Gaussian 16:  EM64L-G16RevB.01 20-Dec-2017

 ---------------------
 # CCSD/aug-cc-pVTZ SP
 ---------------------

 --------------------------------------------------
 Single-point energy of X- + Y- at fixed distance R
 --------------------------------------------------
 Symbolic Z-matrix:
 Charge = -2 Multiplicity = 1

                         Standard orientation:
 ---------------------------------------------------------------------
 Center     Atomic      Atomic             Coordinates (Angstroms)
 Number     Number       Type             X           Y           Z
 ---------------------------------------------------------------------
      1          9           0        0.000000    0.000000    9.160714
      2          9           0        0.000000    1.139000   -4.339286
      3          1           0        0.000000    0.000000   -4.339286
      4          9           0       -0.000000   -1.139000   -4.339286
 ---------------------------------------------------------------------

 SCF Done:  E(RHF) =  -298.989296041     A.U. after   10 cycles
 E2 =    -0.8753679904D+00 EUMP2 =    -0.29986466403141D+03

 The electronic state is 1-A1.
 Alpha  occ. eigenvalues --  -25.91837 -25.91835 -25.79472  -1.22074  -1.17346
 Alpha  occ. eigenvalues --   -1.03706  -0.42988  -0.29206  -0.29203  -0.26555
 Alpha  occ. eigenvalues --   -0.26553  -0.24466  -0.14199  -0.14198  -0.14198
 Alpha virt. eigenvalues --    0.23457   0.34382   0.39436   0.39482   0.39792
 Alpha virt. eigenvalues --    0.47276   0.47346   0.48127   0.48128   0.48180
 Alpha virt. eigenvalues --    0.51658   0.52478   0.58526   0.66009   0.66058

 Mulliken charges:
               1
     1  F   -1.000000
     2  F   -0.755063
     3  H    0.510126
     4  F   -0.755063
 Sum of Mulliken charges =  -2.00000

 Dipole moment (field-independent basis, Debye):
    X=              0.0000    Y=             -0.0000    Z=            -23.1449  Tot=             23.1449
 Quadrupole moment (field-independent basis, Debye-Ang):
   XX=            -19.7379   YY=            -28.8680   ZZ=           -514.1034
   XY=             -0.0000   XZ=             -0.0000   YZ=             -0.0000

 Normal termination of Gaussian 16 at Wed May  7 12:33:51 2025.
