 Gaussian 16, Revision B.01,
 Gaussian 16:  EM64L-G16RevB.01 20-Dec-2017

 ---------------------
 # CCSD/aug-cc-pVTZ SP
 ---------------------

 --------------------------------------------------
 Single-point energy of X- + Y- at fixed distance R
 --------------------------------------------------
 Symbolic Z-matrix:
 Charge = -2 Multiplicity = 1

                         Standard orientation:
 ---------------------------------------------------------------------
 Center     Atomic      Atomic             Coordinates (Angstroms)
 Number     Number       Type             X           Y           Z
 ---------------------------------------------------------------------
      1          9           0       -0.000000    0.000000    9.500000
      2          9           0        0.000000    1.139000   -4.500000
      3          1           0        0.000000    0.000000   -4.500000
      4          9           0       -0.000000   -1.139000   -4.500000
 ---------------------------------------------------------------------

 SCF Done:  E(RHF) =  -298.990672249     A.U. after   10 cycles
 E2 =    -0.8753679889D+00 EUMP2 =    -0.29986604023762D+03

 The electronic state is 1-A1.
 Alpha  occ. eigenvalues --  -25.91975 -25.91973 -25.79610  -1.22212  -1.17484
 Alpha  occ. eigenvalues --   -1.03843  -0.43126  -0.29344  -0.29341  -0.26693
 Alpha  occ. eigenvalues --   -0.26691  -0.24603  -0.14336  -0.14336  -0.14336
 Alpha virt. eigenvalues --    0.23319   0.34253   0.39302   0.39345   0.39651
 Alpha virt. eigenvalues --    0.47142   0.47205   0.47992   0.47992   0.48040
 Alpha virt. eigenvalues --    0.51520   0.52338   0.58390   0.65873   0.65916

 Mulliken charges:
               1
     1  F   -1.000000
     2  F   -0.755052
     3  H    0.510104
     4  F   -0.755052
 Sum of Mulliken charges =  -2.00000

 Dipole moment (field-independent basis, Debye):
    X=              0.0000    Y=              0.0000    Z=            -24.0036  Tot=             24.0036
 Quadrupole moment (field-independent basis, Debye-Ang):
   XX=            -19.7377   YY=            -28.8670   ZZ=           -551.3083
   XY=             -0.0000   XZ=             -0.0000   YZ=              0.0000

 Normal termination of Gaussian 16 at Wed May  7 12:34:18 2025.
