 Gaussian 16, Revision B.01,
 Gaussian 16:  EM64L-G16RevB.01 20-Dec-2017

 ---------------------
 # CCSD/aug-cc-pVTZ SP
 ---------------------

 --------------------------------------------------
 Single-point energy of X- + Y- at fixed distance R
 --------------------------------------------------
 Symbolic Z-matrix:
 Charge = -2 Multiplicity = 1

                         Standard orientation:
 ---------------------------------------------------------------------
 Center     Atomic      Atomic             Coordinates (Angstroms)
 Number     Number       Type             X           Y           Z
 ---------------------------------------------------------------------
      1          9           0        0.000000    0.000000    9.839286
      2          9           0        0.000000    1.139000   -4.660714
      3          1           0        0.000000    0.000000   -4.660714
      4          9           0       -0.000000   -1.139000   -4.660714
 ---------------------------------------------------------------------

 SCF Done:  E(RHF) =  -298.991955142     A.U. after   10 cycles
 E2 =    -0.8753680104D+00 EUMP2 =    -0.29986732315245D+03

 The electronic state is 1-A1.
 Alpha  occ. eigenvalues --  -25.92104 -25.92101 -25.79738  -1.22341  -1.17612
 Alpha  occ. eigenvalues --   -1.03971  -0.43255  -0.29472  -0.29470  -0.26821
 Alpha  occ. eigenvalues --   -0.26820  -0.24732  -0.14464  -0.14464  -0.14464
 Alpha virt. eigenvalues --    0.23190   0.34133   0.39177   0.39217   0.39520
 Alpha virt. eigenvalues --    0.47017   0.47073   0.47865   0.47866   0.47909
 Alpha virt. eigenvalues --    0.51391   0.52208   0.58264   0.65745   0.65784

 Mulliken charges:
               1
     1  F   -1.000000
     2  F   -0.755042
     3  H    0.510085
     4  F   -0.755042
 Sum of Mulliken charges =  -2.00000

 Dipole moment (field-independent basis, Debye):
    X=              0.0000    Y=              0.0000    Z=            -24.8621  Tot=             24.8621
 Quadrupole moment (field-independent basis, Debye-Ang):
   XX=            -19.7375   YY=            -28.8661   ZZ=           -589.8690
   XY=             -0.0000   XZ=             -0.0000   YZ=              0.0000

 Normal termination of Gaussian 16 at Wed May  7 12:34:46 2025.
