 Gaussian 16, Revision B.01,
 Gaussian 16:  EM64L-G16RevB.01 20-Dec-2017

 ---------------------
 # CCSD/aug-cc-pVTZ SP
 ---------------------

 --------------------------------------------------
 Single-point energy of X- + Y- at fixed distance R
 --------------------------------------------------
 Symbolic Z-matrix:
 Charge = -2 Multiplicity = 1

                         Standard orientation:
 ---------------------------------------------------------------------
 Center     Atomic      Atomic             Coordinates (Angstroms)
 Number     Number       Type             X           Y           Z
 ---------------------------------------------------------------------
      1          9           0        0.000000    0.000000   10.517857
      2          9           0        0.000000    1.139000   -4.982143
      3          1           0        0.000000    0.000000   -4.982143
      4          9           0       -0.000000   -1.139000   -4.982143
 ---------------------------------------------------------------------

 SCF Done:  E(RHF) =  -298.994276334     A.U. after   10 cycles
 E2 =    -0.8753680951D+00 EUMP2 =    -0.29986964442896D+03

 The electronic state is 1-A1.
 Alpha  occ. eigenvalues --  -25.92336 -25.92334 -25.79970  -1.22574  -1.17845
 Alpha  occ. eigenvalues --   -1.04203  -0.43488  -0.29705  -0.29703  -0.27054
 Alpha  occ. eigenvalues --   -0.27053  -0.24964  -0.14696  -0.14696  -0.14696
 Alpha virt. eigenvalues --    0.22957   0.33913   0.38949   0.38985   0.39284
 Alpha virt. eigenvalues --    0.46790   0.46836   0.47637   0.47637   0.47673
 Alpha virt. eigenvalues --    0.51158   0.51973   0.58034   0.65514   0.65546

 Mulliken charges:
               1
     1  F   -1.000000
     2  F   -0.755027
     3  H    0.510054
     4  F   -0.755027
 Sum of Mulliken charges =  -2.00000

 Dipole moment (field-independent basis, Debye):
    X=              0.0000    Y=             -0.0000    Z=            -26.5790  Tot=             26.5790
 Quadrupole moment (field-independent basis, Debye-Ang):
   XX=            -19.7372   YY=            -28.8647   ZZ=           -671.0574
   XY=             -0.0000   XZ=             -0.0000   YZ=              0.0000

 Normal termination of Gaussian 16 at Wed May  7 12:35:43 2025.
