 Gaussian 16, Revision B.01,
 Gaussian 16:  EM64L-G16RevB.01 20-Dec-2017

 ---------------------
 # CCSD/aug-cc-pVTZ SP
 ---------------------

 --------------------------------------------------
 Single-point energy of X- + Y- at fixed distance R
 --------------------------------------------------
 Symbolic Z-matrix:
 Charge = -2 Multiplicity = 1

                         Standard orientation:
 ---------------------------------------------------------------------
 Center     Atomic      Atomic             Coordinates (Angstroms)
 Number     Number       Type             X           Y           Z
 ---------------------------------------------------------------------
      1          9           0        0.000000    0.000000   10.857143
      2          9           0        0.000000    1.139000   -5.142857
      3          1           0        0.000000    0.000000   -5.142857
      4          9           0       -0.000000   -1.139000   -5.142857
 ---------------------------------------------------------------------

 SCF Done:  E(RHF) =  -298.995329618     A.U. after   10 cycles
 E2 =    -0.8753681492D+00 EUMP2 =    -0.29987069776752D+03

 The electronic state is 1-A1.
 Alpha  occ. eigenvalues --  -25.92442 -25.92440 -25.80075  -1.22680  -1.17951
 Alpha  occ. eigenvalues --   -1.04308  -0.43593  -0.29810  -0.29809  -0.27159
 Alpha  occ. eigenvalues --   -0.27158  -0.25070  -0.14801  -0.14801  -0.14801
 Alpha virt. eigenvalues --    0.22851   0.33813   0.38846   0.38879   0.39178
 Alpha virt. eigenvalues --    0.46686   0.46729   0.47533   0.47533   0.47566
 Alpha virt. eigenvalues --    0.51052   0.51867   0.57930   0.65409   0.65439

 Mulliken charges:
               1
     1  F   -1.000000
     2  F   -0.755021
     3  H    0.510042
     4  F   -0.755021
 Sum of Mulliken charges =  -2.00000

 Dipole moment (field-independent basis, Debye):
    X=              0.0000    Y=              0.0000    Z=            -27.4373  Tot=             27.4373
 Quadrupole moment (field-independent basis, Debye-Ang):
   XX=            -19.7370   YY=            -28.8641   ZZ=           -713.6848
   XY=             -0.0000   XZ=             -0.0000   YZ=              0.0000

 Normal termination of Gaussian 16 at Wed May  7 12:36:10 2025.
