 Gaussian 16, Revision B.01,
 Gaussian 16:  EM64L-G16RevB.01 20-Dec-2017

 ---------------------
 # CCSD/aug-cc-pVTZ SP
 ---------------------

 --------------------------------------------------
 Single-point energy of X- + Y- at fixed distance R
 --------------------------------------------------
 Symbolic Z-matrix:
 Charge = -2 Multiplicity = 1

                         Standard orientation:
 ---------------------------------------------------------------------
 Center     Atomic      Atomic             Coordinates (Angstroms)
 Number     Number       Type             X           Y           Z
 ---------------------------------------------------------------------
      1          9           0        0.000000    0.000000   11.196429
      2          9           0        0.000000    1.139000   -5.303571
      3          1           0        0.000000   -0.000000   -5.303571
      4          9           0       -0.000000   -1.139000   -5.303571
 ---------------------------------------------------------------------

 SCF Done:  E(RHF) =  -298.996319876     A.U. after   10 cycles
 E2 =    -0.8753682070D+00 EUMP2 =    -0.29987168808296D+03

 The electronic state is 1-A1.
 Alpha  occ. eigenvalues --  -25.92541 -25.92539 -25.80174  -1.22779  -1.18050
 Alpha  occ. eigenvalues --   -1.04407  -0.43693  -0.29910  -0.29908  -0.27258
 Alpha  occ. eigenvalues --   -0.27258  -0.25169  -0.14900  -0.14900  -0.14900
 Alpha virt. eigenvalues --    0.22752   0.33719   0.38748   0.38780   0.39078
 Alpha virt. eigenvalues --    0.46589   0.46628   0.47435   0.47435   0.47466
 Alpha virt. eigenvalues --    0.50953   0.51767   0.57832   0.65311   0.65337

 Mulliken charges:
               1
     1  F   -1.000000
     2  F   -0.755015
     3  H    0.510031
     4  F   -0.755015
 Sum of Mulliken charges =  -2.00000

 Dipole moment (field-independent basis, Debye):
    X=              0.0000    Y=              0.0000    Z=            -28.2956  Tot=             28.2956
 Quadrupole moment (field-independent basis, Debye-Ang):
   XX=            -19.7369   YY=            -28.8636   ZZ=           -757.6674
   XY=             -0.0000   XZ=             -0.0000   YZ=              0.0000

 Normal termination of Gaussian 16 at Wed May  7 12:36:39 2025.
