 Gaussian 16, Revision B.01,
 Gaussian 16:  EM64L-G16RevB.01 20-Dec-2017

 ---------------------
 # CCSD/aug-cc-pVTZ SP
 ---------------------

 --------------------------------------------------
 Single-point energy of X- + Y- at fixed distance R
 --------------------------------------------------
 Symbolic Z-matrix:
 Charge = -2 Multiplicity = 1

                         Standard orientation:
 ---------------------------------------------------------------------
 Center     Atomic      Atomic             Coordinates (Angstroms)
 Number     Number       Type             X           Y           Z
 ---------------------------------------------------------------------
      1          9           0        0.000000    0.000000   11.535714
      2          9           0        0.000000    1.139000   -5.464286
      3          1           0        0.000000    0.000000   -5.464286
      4          9           0       -0.000000   -1.139000   -5.464286
 ---------------------------------------------------------------------

 SCF Done:  E(RHF) =  -298.997252574     A.U. after   10 cycles
 E2 =    -0.8753682667D+00 EUMP2 =    -0.29987262084099D+03

 The electronic state is 1-A1.
 Alpha  occ. eigenvalues --  -25.92634 -25.92632 -25.80267  -1.22872  -1.18143
 Alpha  occ. eigenvalues --   -1.04501  -0.43786  -0.30003  -0.30002  -0.27352
 Alpha  occ. eigenvalues --   -0.27351  -0.25262  -0.14994  -0.14993  -0.14993
 Alpha virt. eigenvalues --    0.22658   0.33630   0.38656   0.38686   0.38985
 Alpha virt. eigenvalues --    0.46498   0.46533   0.47343   0.47343   0.47371
 Alpha virt. eigenvalues --    0.50860   0.51673   0.57740   0.65218   0.65242

 Mulliken charges:
               1
     1  F   -1.000000
     2  F   -0.755011
     3  H    0.510022
     4  F   -0.755011
 Sum of Mulliken charges =  -2.00000

 Dipole moment (field-independent basis, Debye):
    X=              0.0000    Y=             -0.0000    Z=            -29.1539  Tot=             29.1539
 Quadrupole moment (field-independent basis, Debye-Ang):
   XX=            -19.7368   YY=            -28.8631   ZZ=           -803.0052
   XY=             -0.0000   XZ=             -0.0000   YZ=              0.0000

 Normal termination of Gaussian 16 at Wed May  7 12:37:07 2025.
