 Gaussian 16, Revision B.01,
 Gaussian 16:  EM64L-G16RevB.01 20-Dec-2017

 ---------------------
 # CCSD/aug-cc-pVTZ SP
 ---------------------

 --------------------------------------------------
 Single-point energy of X- + Y- at fixed distance R
 --------------------------------------------------
 Symbolic Z-matrix:
 Charge = -2 Multiplicity = 1

                         Standard orientation:
 ---------------------------------------------------------------------
 Center     Atomic      Atomic             Coordinates (Angstroms)
 Number     Number       Type             X           Y           Z
 ---------------------------------------------------------------------
      1          9           0       -0.000000    0.000000   11.875000
      2          9           0        0.000000    1.139000   -5.625000
      3          1           0        0.000000    0.000000   -5.625000
      4          9           0       -0.000000   -1.139000   -5.625000
 ---------------------------------------------------------------------

 SCF Done:  E(RHF) =  -298.998132569     A.U. after   10 cycles
 E2 =    -0.8753683267D+00 EUMP2 =    -0.29987350089615D+03

 The electronic state is 1-A1.
 Alpha  occ. eigenvalues --  -25.92723 -25.92720 -25.80355  -1.22961  -1.18232
 Alpha  occ. eigenvalues --   -1.04588  -0.43874  -0.30091  -0.30090  -0.27440
 Alpha  occ. eigenvalues --   -0.27439  -0.25350  -0.15081  -0.15081  -0.15081
 Alpha virt. eigenvalues --    0.22570   0.33545   0.38570   0.38598   0.38896
 Alpha virt. eigenvalues --    0.46411   0.46444   0.47256   0.47256   0.47282
 Alpha virt. eigenvalues --    0.50771   0.51584   0.57653   0.65130   0.65153

 Mulliken charges:
               1
     1  F   -1.000000
     2  F   -0.755007
     3  H    0.510013
     4  F   -0.755007
 Sum of Mulliken charges =  -2.00000

 Dipole moment (field-independent basis, Debye):
    X=              0.0000    Y=             -0.0000    Z=            -30.0121  Tot=             30.0121
 Quadrupole moment (field-independent basis, Debye-Ang):
   XX=            -19.7367   YY=            -28.8627   ZZ=           -849.6981
   XY=             -0.0000   XZ=             -0.0000   YZ=              0.0000

 Normal termination of Gaussian 16 at Wed May  7 12:37:34 2025.
