 Gaussian 16, Revision B.01,
 Gaussian 16:  EM64L-G16RevB.01 20-Dec-2017

 ---------------------
 # CCSD/aug-cc-pVTZ SP
 ---------------------

 --------------------------------------------------
 Single-point energy of X- + Y- at fixed distance R
 --------------------------------------------------
 Symbolic Z-matrix:
 Charge = -2 Multiplicity = 1

                         Standard orientation:
 ---------------------------------------------------------------------
 Center     Atomic      Atomic             Coordinates (Angstroms)
 Number     Number       Type             X           Y           Z
 ---------------------------------------------------------------------
      1          9           0       -0.000000    0.000000   12.214286
      2          9           0        0.000000    1.139000   -5.785714
      3          1           0        0.000000    0.000000   -5.785714
      4          9           0       -0.000000   -1.139000   -5.785714
 ---------------------------------------------------------------------

 SCF Done:  E(RHF) =  -298.998964188     A.U. after   10 cycles
 E2 =    -0.8753683861D+00 EUMP2 =    -0.29987433257442D+03

 The electronic state is 1-A1.
 Alpha  occ. eigenvalues --  -25.92806 -25.92804 -25.80438  -1.23044  -1.18315
 Alpha  occ. eigenvalues --   -1.04672  -0.43958  -0.30175  -0.30174  -0.27523
 Alpha  occ. eigenvalues --   -0.27523  -0.25433  -0.15165  -0.15164  -0.15164
 Alpha virt. eigenvalues --    0.22486   0.33465   0.38488   0.38514   0.38813
 Alpha virt. eigenvalues --    0.46329   0.46359   0.47174   0.47174   0.47198
 Alpha virt. eigenvalues --    0.50688   0.51500   0.57570   0.65047   0.65068

 Mulliken charges:
               1
     1  F   -1.000000
     2  F   -0.755003
     3  H    0.510006
     4  F   -0.755003
 Sum of Mulliken charges =  -2.00000

 Dipole moment (field-independent basis, Debye):
    X=              0.0000    Y=              0.0000    Z=            -30.8702  Tot=             30.8702
 Quadrupole moment (field-independent basis, Debye-Ang):
   XX=            -19.7367   YY=            -28.8623   ZZ=           -897.7459
   XY=             -0.0000   XZ=             -0.0000   YZ=              0.0000

 Normal termination of Gaussian 16 at Wed May  7 12:38:02 2025.
