 Gaussian 16, Revision B.01,
 Gaussian 16:  EM64L-G16RevB.01 20-Dec-2017

 ---------------------
 # CCSD/aug-cc-pVTZ SP
 ---------------------

 --------------------------------------------------
 Single-point energy of X- + Y- at fixed distance R
 --------------------------------------------------
 Symbolic Z-matrix:
 Charge = -2 Multiplicity = 1

                         Standard orientation:
 ---------------------------------------------------------------------
 Center     Atomic      Atomic             Coordinates (Angstroms)
 Number     Number       Type             X           Y           Z
 ---------------------------------------------------------------------
      1          9           0       -0.000000   -0.000000   12.553571
      2          9           0        0.000000    1.139000   -5.946429
      3          1           0        0.000000    0.000000   -5.946429
      4          9           0       -0.000000   -1.139000   -5.946429
 ---------------------------------------------------------------------

 SCF Done:  E(RHF) =  -298.999751299     A.U. after   10 cycles
 E2 =    -0.8753684443D+00 EUMP2 =    -0.29987511974295D+03

 The electronic state is 1-A1.
 Alpha  occ. eigenvalues --  -25.92885 -25.92882 -25.80517  -1.23123  -1.18394
 Alpha  occ. eigenvalues --   -1.04750  -0.44036  -0.30253  -0.30252  -0.27602
 Alpha  occ. eigenvalues --   -0.27602  -0.25512  -0.15243  -0.15243  -0.15243
 Alpha virt. eigenvalues --    0.22407   0.33389   0.38410   0.38434   0.38734
 Alpha virt. eigenvalues --    0.46252   0.46279   0.47096   0.47096   0.47118
 Alpha virt. eigenvalues --    0.50609   0.51421   0.57492   0.64969   0.64988

 Mulliken charges:
               1
     1  F   -1.000000
     2  F   -0.755000
     3  H    0.509999
     4  F   -0.755000
 Sum of Mulliken charges =  -2.00000

 Dipole moment (field-independent basis, Debye):
    X=              0.0000    Y=              0.0000    Z=            -31.7283  Tot=             31.7283
 Quadrupole moment (field-independent basis, Debye-Ang):
   XX=            -19.7366   YY=            -28.8620   ZZ=           -947.1487
   XY=             -0.0000   XZ=             -0.0000   YZ=              0.0000

 Normal termination of Gaussian 16 at Wed May  7 12:38:31 2025.
