 Gaussian 16, Revision B.01,
 Gaussian 16:  EM64L-G16RevB.01 20-Dec-2017

 ---------------------
 # CCSD/aug-cc-pVTZ SP
 ---------------------

 --------------------------------------------------
 Single-point energy of X- + Y- at fixed distance R
 --------------------------------------------------
 Symbolic Z-matrix:
 Charge = -2 Multiplicity = 1

                         Standard orientation:
 ---------------------------------------------------------------------
 Center     Atomic      Atomic             Coordinates (Angstroms)
 Number     Number       Type             X           Y           Z
 ---------------------------------------------------------------------
      1          9           0       -0.000000    0.000000   12.892857
      2          9           0        0.000000    1.139000   -6.107143
      3          1           0        0.000000   -0.000000   -6.107143
      4          9           0       -0.000000   -1.139000   -6.107143
 ---------------------------------------------------------------------

 SCF Done:  E(RHF) =  -299.000497368     A.U. after   10 cycles
 E2 =    -0.8753685006D+00 EUMP2 =    -0.29987586586902D+03

 The electronic state is 1-A1.
 Alpha  occ. eigenvalues --  -25.92959 -25.92957 -25.80591  -1.23198  -1.18468
 Alpha  occ. eigenvalues --   -1.04825  -0.44111  -0.30328  -0.30327  -0.27677
 Alpha  occ. eigenvalues --   -0.27676  -0.25587  -0.15318  -0.15318  -0.15318
 Alpha virt. eigenvalues --    0.22333   0.33318   0.38336   0.38359   0.38659
 Alpha virt. eigenvalues --    0.46178   0.46204   0.47022   0.47022   0.47043
 Alpha virt. eigenvalues --    0.50534   0.51346   0.57418   0.64894   0.64912

 Mulliken charges:
               1
     1  F   -1.000000
     2  F   -0.754997
     3  H    0.509993
     4  F   -0.754997
 Sum of Mulliken charges =  -2.00000

 Dipole moment (field-independent basis, Debye):
    X=              0.0000    Y=              0.0000    Z=            -32.5864  Tot=             32.5864
 Quadrupole moment (field-independent basis, Debye-Ang):
   XX=            -19.7365   YY=            -28.8617   ZZ=           -997.9062
   XY=             -0.0000   XZ=             -0.0000   YZ=              0.0000

 Normal termination of Gaussian 16 at Wed May  7 12:38:59 2025.
