 Gaussian 16, Revision B.01,
 Gaussian 16:  EM64L-G16RevB.01 20-Dec-2017

 ---------------------
 # CCSD/aug-cc-pVTZ SP
 ---------------------

 --------------------------------------------------
 Single-point energy of X- + Y- at fixed distance R
 --------------------------------------------------
 Symbolic Z-matrix:
 Charge = -2 Multiplicity = 1

                         Standard orientation:
 ---------------------------------------------------------------------
 Center     Atomic      Atomic             Coordinates (Angstroms)
 Number     Number       Type             X           Y           Z
 ---------------------------------------------------------------------
      1          9           0        0.000000    0.000000   13.232143
      2          9           0        0.000000    1.139000   -6.267857
      3          1           0        0.000000    0.000000   -6.267857
      4          9           0       -0.000000   -1.139000   -6.267857
 ---------------------------------------------------------------------

 SCF Done:  E(RHF) =  -299.001205515     A.U. after   10 cycles
 E2 =    -0.8753685549D+00 EUMP2 =    -0.29987657407023D+03

 The electronic state is 1-A1.
 Alpha  occ. eigenvalues --  -25.93030 -25.93028 -25.80662  -1.23268  -1.18539
 Alpha  occ. eigenvalues --   -1.04896  -0.44182  -0.30399  -0.30398  -0.27748
 Alpha  occ. eigenvalues --   -0.27747  -0.25658  -0.15389  -0.15388  -0.15388
 Alpha virt. eigenvalues --    0.22262   0.33249   0.38267   0.38288   0.38589
 Alpha virt. eigenvalues --    0.46108   0.46132   0.46952   0.46952   0.46971
 Alpha virt. eigenvalues --    0.50463   0.51275   0.57348   0.64824   0.64840

 Mulliken charges:
               1
     1  F   -1.000000
     2  F   -0.754994
     3  H    0.509988
     4  F   -0.754994
 Sum of Mulliken charges =  -2.00000

 Dipole moment (field-independent basis, Debye):
    X=              0.0000    Y=              0.0000    Z=            -33.4445  Tot=             33.4445
 Quadrupole moment (field-independent basis, Debye-Ang):
   XX=            -19.7365   YY=            -28.8615   ZZ=          -1050.0186
   XY=             -0.0000   XZ=             -0.0000   YZ=             -0.0000

 Normal termination of Gaussian 16 at Wed May  7 12:39:22 2025.
