 Gaussian 16, Revision B.01,
 Gaussian 16:  EM64L-G16RevB.01 20-Dec-2017

 ---------------------
 # CCSD/aug-cc-pVTZ SP
 ---------------------

 --------------------------------------------------
 Single-point energy of X- + Y- at fixed distance R
 --------------------------------------------------
 Symbolic Z-matrix:
 Charge = -2 Multiplicity = 1

                         Standard orientation:
 ---------------------------------------------------------------------
 Center     Atomic      Atomic             Coordinates (Angstroms)
 Number     Number       Type             X           Y           Z
 ---------------------------------------------------------------------
      1          9           0        0.000000    0.000000   13.571429
      2          9           0        0.000000    1.139000   -6.428571
      3          1           0        0.000000    0.000000   -6.428571
      4          9           0       -0.000000   -1.139000   -6.428571
 ---------------------------------------------------------------------

 SCF Done:  E(RHF) =  -299.001878550     A.U. after   10 cycles
 E2 =    -0.8753686070D+00 EUMP2 =    -0.29987724715733D+03

 The electronic state is 1-A1.
 Alpha  occ. eigenvalues --  -25.93098 -25.93096 -25.80729  -1.23336  -1.18607
 Alpha  occ. eigenvalues --   -1.04963  -0.44250  -0.30466  -0.30466  -0.27815
 Alpha  occ. eigenvalues --   -0.27815  -0.25725  -0.15456  -0.15456  -0.15456
 Alpha virt. eigenvalues --    0.22194   0.33184   0.38200   0.38220   0.38521
 Alpha virt. eigenvalues --    0.46042   0.46064   0.46885   0.46885   0.46903
 Alpha virt. eigenvalues --    0.50396   0.51207   0.57281   0.64757   0.64772

 Mulliken charges:
               1
     1  F   -1.000000
     2  F   -0.754992
     3  H    0.509984
     4  F   -0.754992
 Sum of Mulliken charges =  -2.00000

 Dipole moment (field-independent basis, Debye):
    X=              0.0000    Y=              0.0000    Z=            -34.3025  Tot=             34.3025
 Quadrupole moment (field-independent basis, Debye-Ang):
   XX=            -19.7364   YY=            -28.8612   ZZ=          -1103.4856
   XY=             -0.0000   XZ=             -0.0000   YZ=              0.0000

 Normal termination of Gaussian 16 at Wed May  7 12:39:51 2025.
