 Gaussian 16, Revision B.01,
 Gaussian 16:  EM64L-G16RevB.01 20-Dec-2017

 ---------------------
 # CCSD/aug-cc-pVTZ SP
 ---------------------

 --------------------------------------------------
 Single-point energy of X- + Y- at fixed distance R
 --------------------------------------------------
 Symbolic Z-matrix:
 Charge = -2 Multiplicity = 1

                         Standard orientation:
 ---------------------------------------------------------------------
 Center     Atomic      Atomic             Coordinates (Angstroms)
 Number     Number       Type             X           Y           Z
 ---------------------------------------------------------------------
      1          9           0       -0.000000    0.000000    2.307143
      2          9           0        0.000000    1.139000   -1.092857
      3          1           0        0.000000   -0.000000   -1.092857
      4          9           0       -0.000000   -1.139000   -1.092857
 ---------------------------------------------------------------------

 SCF Done:  E(RHF) =  -298.888595672     A.U. after   10 cycles
 E2 =    -0.8768624782D+00 EUMP2 =    -0.29976545815032D+03

 The electronic state is 1-A1.
 Alpha  occ. eigenvalues --  -25.81629 -25.81627 -25.69725  -1.11772  -1.07089
 Alpha  occ. eigenvalues --   -0.93893  -0.32702  -0.18968  -0.18836  -0.16339
 Alpha  occ. eigenvalues --   -0.16249  -0.14308  -0.04381  -0.04380  -0.04324
 Alpha virt. eigenvalues --    0.30609   0.41146   0.46974   0.48050   0.50139
 Alpha virt. eigenvalues --    0.55860   0.56981   0.58014   0.58021   0.59887
 Alpha virt. eigenvalues --    0.60892   0.69503   0.74451   0.75772   0.78738

 Mulliken charges:
               1
     1  F   -1.005713
     2  F   -0.768668
     3  H    0.543049
     4  F   -0.768668
 Sum of Mulliken charges =  -2.00000

 Dipole moment (field-independent basis, Debye):
    X=              0.0000    Y=              0.0000    Z=             -5.6831  Tot=              5.6831
 Quadrupole moment (field-independent basis, Debye-Ang):
   XX=            -19.8759   YY=            -29.3610   ZZ=            -53.8483
   XY=             -0.0000   XZ=             -0.0000   YZ=             -0.0000

 Normal termination of Gaussian 16 at Thu May  8 14:41:41 2025.
