 Gaussian 16, Revision B.01,
 Gaussian 16:  EM64L-G16RevB.01 20-Dec-2017

 ---------------------
 # CCSD/aug-cc-pVTZ SP
 ---------------------

 --------------------------------------------------
 Single-point energy of X- + Y- at fixed distance R
 --------------------------------------------------
 Symbolic Z-matrix:
 Charge = -2 Multiplicity = 1

                         Standard orientation:
 ---------------------------------------------------------------------
 Center     Atomic      Atomic             Coordinates (Angstroms)
 Number     Number       Type             X           Y           Z
 ---------------------------------------------------------------------
      1          9           0       -0.000000    0.000000    2.375000
      2          9           0        0.000000    1.139000   -1.125000
      3          1           0        0.000000   -0.000000   -1.125000
      4          9           0       -0.000000   -1.139000   -1.125000
 ---------------------------------------------------------------------

 SCF Done:  E(RHF) =  -298.891755493     A.U. after   10 cycles
 E2 =    -0.8766911785D+00 EUMP2 =    -0.29976844667159D+03

 The electronic state is 1-A1.
 Alpha  occ. eigenvalues --  -25.81952 -25.81950 -25.70012  -1.12102  -1.07416
 Alpha  occ. eigenvalues --   -0.94182  -0.33032  -0.19294  -0.19166  -0.16663
 Alpha  occ. eigenvalues --   -0.16578  -0.14628  -0.04671  -0.04671  -0.04619
 Alpha virt. eigenvalues --    0.30479   0.41024   0.46810   0.47822   0.50141
 Alpha virt. eigenvalues --    0.55646   0.56619   0.57728   0.57747   0.59683
 Alpha virt. eigenvalues --    0.60637   0.69138   0.73588   0.75478   0.78369

 Mulliken charges:
               1
     1  F   -1.004882
     2  F   -0.767454
     3  H    0.539789
     4  F   -0.767454
 Sum of Mulliken charges =  -2.00000

 Dipole moment (field-independent basis, Debye):
    X=              0.0000    Y=              0.0000    Z=             -5.8604  Tot=              5.8604
 Quadrupole moment (field-independent basis, Debye-Ang):
   XX=            -19.8649   YY=            -29.3262   ZZ=            -55.6619
   XY=             -0.0000   XZ=             -0.0000   YZ=             -0.0000

 Normal termination of Gaussian 16 at Thu May  8 14:42:12 2025.
