 Gaussian 16, Revision B.01,
 Gaussian 16:  EM64L-G16RevB.01 20-Dec-2017

 ---------------------
 # CCSD/aug-cc-pVTZ SP
 ---------------------

 --------------------------------------------------
 Single-point energy of X- + Y- at fixed distance R
 --------------------------------------------------
 Symbolic Z-matrix:
 Charge = -2 Multiplicity = 1

                         Standard orientation:
 ---------------------------------------------------------------------
 Center     Atomic      Atomic             Coordinates (Angstroms)
 Number     Number       Type             X           Y           Z
 ---------------------------------------------------------------------
      1          9           0       -0.000000    0.000000    2.578571
      2          9           0        0.000000    1.139000   -1.221429
      3          1           0        0.000000    0.000000   -1.221429
      4          9           0       -0.000000   -1.139000   -1.221429
 ---------------------------------------------------------------------

 SCF Done:  E(RHF) =  -298.900518492     A.U. after   10 cycles
 E2 =    -0.8762855396D+00 EUMP2 =    -0.29977680403189D+03

 The electronic state is 1-A1.
 Alpha  occ. eigenvalues --  -25.82848 -25.82846 -25.70813  -1.13017  -1.08323
 Alpha  occ. eigenvalues --   -0.94994  -0.33946  -0.20197  -0.20088  -0.17563
 Alpha  occ. eigenvalues --   -0.17492  -0.15518  -0.05486  -0.05486  -0.05448
 Alpha virt. eigenvalues --    0.30098   0.40659   0.46335   0.47162   0.50037
 Alpha virt. eigenvalues --    0.55025   0.55464   0.56793   0.56881   0.59104
 Alpha virt. eigenvalues --    0.60083   0.68091   0.71102   0.74659   0.77227

 Mulliken charges:
               1
     1  F   -1.003147
     2  F   -0.764772
     3  H    0.532691
     4  F   -0.764772
 Sum of Mulliken charges =  -2.00000

 Dipole moment (field-independent basis, Debye):
    X=              0.0000    Y=              0.0000    Z=             -6.3903  Tot=              6.3903
 Quadrupole moment (field-independent basis, Debye-Ang):
   XX=            -19.8371   YY=            -29.2379   ZZ=            -61.4360
   XY=             -0.0000   XZ=             -0.0000   YZ=              0.0000

 Normal termination of Gaussian 16 at Thu May  8 14:43:13 2025.
