 Gaussian 16, Revision B.01,
 Gaussian 16:  EM64L-G16RevB.01 20-Dec-2017

 ---------------------
 # CCSD/aug-cc-pVTZ SP
 ---------------------

 --------------------------------------------------
 Single-point energy of X- + Y- at fixed distance R
 --------------------------------------------------
 Symbolic Z-matrix:
 Charge = -2 Multiplicity = 1

                         Standard orientation:
 ---------------------------------------------------------------------
 Center     Atomic      Atomic             Coordinates (Angstroms)
 Number     Number       Type             X           Y           Z
 ---------------------------------------------------------------------
      1          9           0        0.000000    0.000000    3.053571
      2          9           0        0.000000    1.139000   -1.446429
      3          1           0        0.000000    0.000000   -1.446429
      4          9           0       -0.000000   -1.139000   -1.446429
 ---------------------------------------------------------------------

 SCF Done:  E(RHF) =  -298.917525535     A.U. after   10 cycles
 E2 =    -0.8757495691D+00 EUMP2 =    -0.29979327510374D+03

 The electronic state is 1-A1.
 Alpha  occ. eigenvalues --  -25.84584 -25.84582 -25.72405  -1.14783  -1.10075
 Alpha  occ. eigenvalues --   -0.96610  -0.35708  -0.21945  -0.21874  -0.19304
 Alpha  occ. eigenvalues --   -0.19260  -0.17243  -0.07103  -0.07101  -0.07087
 Alpha virt. eigenvalues --    0.29304   0.39829   0.45337   0.45817   0.48870
 Alpha virt. eigenvalues --    0.53084   0.53725   0.54702   0.55149   0.57614
 Alpha virt. eigenvalues --    0.59319   0.65962   0.66378   0.73043   0.74598

 Mulliken charges:
               1
     1  F   -1.001214
     2  F   -0.760953
     3  H    0.523119
     4  F   -0.760953
 Sum of Mulliken charges =  -2.00000

 Dipole moment (field-independent basis, Debye):
    X=              0.0000    Y=              0.0000    Z=             -7.6183  Tot=              7.6183
 Quadrupole moment (field-independent basis, Debye-Ang):
   XX=            -19.7954   YY=            -29.0987   ZZ=            -76.8447
   XY=             -0.0000   XZ=             -0.0000   YZ=              0.0000

 Normal termination of Gaussian 16 at Thu May  8 14:43:44 2025.
