 Gaussian 16, Revision B.01,
 Gaussian 16:  EM64L-G16RevB.01 20-Dec-2017

 ---------------------
 # CCSD/aug-cc-pVTZ SP
 ---------------------

 -------------------------
 Single-point energy of F-
 -------------------------
 Symbolic Z-matrix:
 Charge = -1 Multiplicity = 1

                         Standard orientation:
 ---------------------------------------------------------------------
 Center     Atomic      Atomic             Coordinates (Angstroms)
 Number     Number       Type             X           Y           Z
 ---------------------------------------------------------------------
      1          9           0        0.000000    0.000000    0.000000
 ---------------------------------------------------------------------

 SCF Done:  E(RHF) =  -99.4508068959     A.U. after    8 cycles
 E2 =    -0.2950714741D+00 EUMP2 =    -0.99745878369939D+02

 The electronic state is 1-A1G.
 Alpha  occ. eigenvalues --  -25.83368  -1.07602  -0.18095  -0.18095  -0.18095
 Alpha virt. eigenvalues --    0.44253   0.44253   0.44253   0.48565   1.22848
 Alpha virt. eigenvalues --    1.22848   1.22848   1.22848   1.22848   1.52600
 Alpha virt. eigenvalues --    1.52600   1.52600   2.05114   3.28334   3.28334

 Mulliken charges:
               1
     1  F   -1.000000
 Sum of Mulliken charges =  -1.00000

 Dipole moment (field-independent basis, Debye):
    X=              0.0000    Y=              0.0000    Z=              0.0000  Tot=              0.0000
 Quadrupole moment (field-independent basis, Debye-Ang):
   XX=             -7.1678   YY=             -7.1678   ZZ=             -7.1678
   XY=              0.0000   XZ=             -0.0000   YZ=             -0.0000

 Normal termination of Gaussian 16 at Wed May 14 18:38:41 2025.
