 Gaussian 16, Revision B.01,
 Gaussian 16:  EM64L-G16RevB.01 20-Dec-2017

 ---------------------
 # CCSD/aug-cc-pVTZ SP
 ---------------------

 ---------------------------
 Single-point energy of FHF-
 ---------------------------
 Symbolic Z-matrix:
 Charge = -1 Multiplicity = 1

                         Standard orientation:
 ---------------------------------------------------------------------
 Center     Atomic      Atomic             Coordinates (Angstroms)
 Number     Number       Type             X           Y           Z
 ---------------------------------------------------------------------
      1          9           0        0.000000    0.000000    1.139000
      2          1           0        0.000000    0.000000    0.000000
      3          9           0        0.000000    0.000000   -1.139000
 ---------------------------------------------------------------------

 SCF Done:  E(RHF) =  -199.577463522     A.U. after   10 cycles
 E2 =    -0.5802981729D+00 EUMP2 =    -0.20015776169496D+03

 The electronic state is 1-SGG.
 Alpha  occ. eigenvalues --  -25.95738 -25.95736  -1.25977  -1.21247  -0.46890
 Alpha  occ. eigenvalues --   -0.33107  -0.33107  -0.30455  -0.30455  -0.28365
 Alpha virt. eigenvalues --    0.19551   0.30572   0.35571   0.35571   0.35887
 Alpha virt. eigenvalues --    0.43413   0.43413   0.47755   0.54649   0.62120
 Alpha virt. eigenvalues --    0.62120   0.72007   0.90459   0.91922   0.99933

 Mulliken charges:
               1
     1  F   -0.754964
     2  H    0.509927
     3  F   -0.754964
 Sum of Mulliken charges =  -1.00000

 Dipole moment (field-independent basis, Debye):
    X=             -0.0000    Y=             -0.0000    Z=              0.0000  Tot=              0.0000
 Quadrupole moment (field-independent basis, Debye-Ang):
   XX=            -12.5680   YY=            -12.5680   ZZ=            -21.6904
   XY=              0.0000   XZ=              0.0000   YZ=              0.0000

 Normal termination of Gaussian 16 at Wed May 14 18:40:29 2025.
