 Gaussian 16, Revision B.01,
 Gaussian 16:  EM64L-G16RevB.01 20-Dec-2017

 ---------------------
 # CCSD/aug-cc-pVTZ SP
 ---------------------

 --------------------------------------------------
 Single-point energy of X- + Y- at fixed distance R
 --------------------------------------------------
 Symbolic Z-matrix:
 Charge = -2 Multiplicity = 1

                         Standard orientation:
 ---------------------------------------------------------------------
 Center     Atomic      Atomic             Coordinates (Angstroms)
 Number     Number       Type             X           Y           Z
 ---------------------------------------------------------------------
      1          9           0       -0.000000    0.000000    2.442857
      2          9           0        0.000000    1.139000   -1.157143
      3          1           0        0.000000    0.000000   -1.157143
      4          9           0       -0.000000   -1.139000   -1.157143
 ---------------------------------------------------------------------

 SCF Done:  E(RHF) =  -298.894790868     A.U. after   10 cycles
 E2 =    -0.8765395898D+00 EUMP2 =    -0.29977133045786D+03

 The electronic state is 1-A1.
 Alpha  occ. eigenvalues --  -25.82262 -25.82260 -25.70288  -1.12419  -1.07730
 Alpha  occ. eigenvalues --   -0.94461  -0.33349  -0.19607  -0.19485  -0.16974
 Alpha  occ. eigenvalues --   -0.16894  -0.14936  -0.04952  -0.04952  -0.04905
 Alpha virt. eigenvalues --    0.30350   0.40902   0.46648   0.47597   0.50126
 Alpha virt. eigenvalues --    0.55435   0.56241   0.57440   0.57451   0.59487
 Alpha virt. eigenvalues --    0.60418   0.68781   0.72737   0.75194   0.77991

 Mulliken charges:
               1
     1  F   -1.004195
     2  F   -0.766406
     3  H    0.537007
     4  F   -0.766406
 Sum of Mulliken charges =  -2.00000

 Dipole moment (field-independent basis, Debye):
    X=              0.0000    Y=              0.0000    Z=             -6.0373  Tot=              6.0373
 Quadrupole moment (field-independent basis, Debye-Ang):
   XX=            -19.8548   YY=            -29.2943   ZZ=            -57.5311
   XY=             -0.0000   XZ=             -0.0000   YZ=             -0.0000

 Normal termination of Gaussian 16 at Thu May 15 15:02:11 2025.
