 Gaussian 16, Revision B.01,
 Gaussian 16:  EM64L-G16RevB.01 20-Dec-2017

 ---------------------------------
 # CCSD(T,Full)/aug-cc-pVTZ 6D 10F
 ---------------------------------

 --------------------------------------------------
 Single-point energy of X- + Y- at fixed distance R
 --------------------------------------------------
 Symbolic Z-matrix:
 Charge = -2 Multiplicity = 1

                         Standard orientation:
 ---------------------------------------------------------------------
 Center     Atomic      Atomic             Coordinates (Angstroms)
 Number     Number       Type             X           Y           Z
 ---------------------------------------------------------------------
      1          9           0       -0.000000    0.000000    2.171429
      2          9           0        0.000000    1.139000   -1.028571
      3          1           0        0.000000    0.000000   -1.028571
      4          9           0       -0.000000   -1.139000   -1.028571
 ---------------------------------------------------------------------

 SCF Done:  E(RHF) =  -298.883644214     A.U. after   11 cycles
 E2 =    -0.9515219862D+00 EUMP2 =    -0.29983516620023D+03
 CCSD(T)= -0.29985256471D+03

 The electronic state is 1-A1.
 Alpha  occ. eigenvalues --  -25.80699 -25.80696 -25.68943  -1.11040  -1.06365
 Alpha  occ. eigenvalues --   -0.93294  -0.31989  -0.18278  -0.18138  -0.15649
 Alpha  occ. eigenvalues --   -0.15553  -0.13619  -0.03800  -0.03796  -0.03726
 Alpha virt. eigenvalues --    0.30300   0.40556   0.45344   0.48251   0.48903
 Alpha virt. eigenvalues --    0.55318   0.55357   0.56206   0.56976   0.58840
 Alpha virt. eigenvalues --    0.59132   0.68767   0.69863   0.75609   0.77523

 Mulliken charges:
               1
     1  F   -1.006818
     2  F   -0.924833
     3  H    0.856485
     4  F   -0.924833
 Sum of Mulliken charges =  -2.00000

 Dipole moment (field-independent basis, Debye):
    X=              0.0000    Y=              0.0000    Z=             -5.3336  Tot=              5.3336
 Quadrupole moment (field-independent basis, Debye-Ang):
   XX=            -19.9261   YY=            -29.4582   ZZ=            -50.4679
   XY=             -0.0000   XZ=             -0.0000   YZ=             -0.0000

 MP4SDQ=-299.8286565\CCSD=-299.8224833\CCSD(T)=-299.8525647\RMSD=5.271e
 Normal termination of Gaussian 16 at Wed Jun  4 11:54:32 2025.
