 Gaussian 16, Revision B.01,
 Gaussian 16:  EM64L-G16RevB.01 20-Dec-2017

 ---------------------
 # CCSD/aug-cc-pVTZ SP
 ---------------------

 --------------------------------------------------
 Single-point energy of X- + Y- at fixed distance R
 --------------------------------------------------
 Symbolic Z-matrix:
 Charge = -2 Multiplicity = 1

                         Standard orientation:
 ---------------------------------------------------------------------
 Center     Atomic      Atomic             Coordinates (Angstroms)
 Number     Number       Type             X           Y           Z
 ---------------------------------------------------------------------
      1          9           0       -0.000000   -0.000000    2.035714
      2          9           0        0.000000    1.139000   -0.964286
      3          1           0        0.000000    0.000000   -0.964286
      4          9           0       -0.000000   -1.139000   -0.964286
 ---------------------------------------------------------------------

 SCF Done:  E(RHF) =  -298.874472877     A.U. after   11 cycles
 E2 =    -0.8778161516D+00 EUMP2 =    -0.29975228902882D+03

 The electronic state is 1-A1.
 Alpha  occ. eigenvalues --  -25.80203 -25.80200 -25.68473  -1.10312  -1.05646
 Alpha  occ. eigenvalues --   -0.92646  -0.31244  -0.17532  -0.17391  -0.14907
 Alpha  occ. eigenvalues --   -0.14808  -0.12896  -0.03121  -0.03111  -0.03027
 Alpha virt. eigenvalues --    0.31135   0.41637   0.47639   0.48995   0.49975
 Alpha virt. eigenvalues --    0.56745   0.58160   0.58788   0.59212   0.60841
 Alpha virt. eigenvalues --    0.62199   0.71023   0.77068   0.77907   0.80035

 Mulliken charges:
               1
     1  F   -1.010989
     2  F   -0.773625
     3  H    0.558240
     4  F   -0.773625
 Sum of Mulliken charges =  -2.00000

 Dipole moment (field-independent basis, Debye):
    X=              0.0000    Y=              0.0000    Z=             -4.9694  Tot=              4.9694
 Quadrupole moment (field-independent basis, Debye-Ang):
   XX=            -19.9317   YY=            -29.5334   ZZ=            -47.1524
   XY=             -0.0000   XZ=             -0.0000   YZ=             -0.0000

 Normal termination of Gaussian 16 at Wed May  7 11:45:08 2025.
