 Gaussian 16, Revision B.01,
 Gaussian 16:  EM64L-G16RevB.01 20-Dec-2017

 -----------------------------
 # CCSD(T,Full)/aug-cc-pVTZ SP
 -----------------------------

 --------------------------------------------------
 Single-point energy of X- + Y- at fixed distance R
 --------------------------------------------------
 Symbolic Z-matrix:
 Charge = -2 Multiplicity = 1

                         Standard orientation:
 ---------------------------------------------------------------------
 Center     Atomic      Atomic             Coordinates (Angstroms)
 Number     Number       Type             X           Y           Z
 ---------------------------------------------------------------------
      1          9           0       -0.000000    0.000000    2.171429
      2          9           0        0.000000    1.139000   -1.028571
      3          1           0        0.000000    0.000000   -1.028571
      4          9           0       -0.000000   -1.139000   -1.028571
 ---------------------------------------------------------------------

 SCF Done:  E(RHF) =  -298.881861200     A.U. after   11 cycles
 E2 =    -0.9183278713D+00 EUMP2 =    -0.29980018907135D+03
 CCSD(T)= -0.29981645717D+03

 The electronic state is 1-A1.
 Alpha  occ. eigenvalues --  -25.80944 -25.80942 -25.69122  -1.11071  -1.06396
 Alpha  occ. eigenvalues --   -0.93288  -0.32002  -0.18278  -0.18137  -0.15651
 Alpha  occ. eigenvalues --   -0.15554  -0.13629  -0.03771  -0.03767  -0.03700
 Alpha virt. eigenvalues --    0.30872   0.41391   0.47306   0.48517   0.50083
 Alpha virt. eigenvalues --    0.56298   0.57633   0.58457   0.58616   0.60331
 Alpha virt. eigenvalues --    0.61503   0.70252   0.76191   0.76397   0.79432

 Mulliken charges:
               1
     1  F   -1.007925
     2  F   -0.771389
     3  H    0.550704
     4  F   -0.771389
 Sum of Mulliken charges =  -2.00000

 Dipole moment (field-independent basis, Debye):
    X=              0.0000    Y=              0.0000    Z=             -5.3273  Tot=              5.3273
 Quadrupole moment (field-independent basis, Debye-Ang):
   XX=            -19.9012   YY=            -29.4399   ZZ=            -50.3885
   XY=             -0.0000   XZ=             -0.0000   YZ=              0.0000

 DQ=-299.7932635\CCSD=-299.7869664\CCSD(T)=-299.8164572\RMSD=5.092e-09\
 Normal termination of Gaussian 16 at Tue Jun  3 17:19:27 2025.
