 Gaussian 16, Revision B.01,
 Gaussian 16:  EM64L-G16RevB.01 20-Dec-2017

 ---------------------
 # CCSD/aug-cc-pVTZ SP
 ---------------------

 --------------------------------------------------
 Single-point energy of X- + Y- at fixed distance R
 --------------------------------------------------
 Symbolic Z-matrix:
 Charge = -2 Multiplicity = 1

                         Standard orientation:
 ---------------------------------------------------------------------
 Center     Atomic      Atomic             Coordinates (Angstroms)
 Number     Number       Type             X           Y           Z
 ---------------------------------------------------------------------
      1          9           0        0.000000    0.000000    1.206522
      2         17           0       -0.000000    2.140000   -0.293478
      3          3           0       -0.000000    0.000000   -0.293478
      4         17           0       -0.000000   -2.140000   -0.293478
 ---------------------------------------------------------------------

 SCF Done:  E(RHF) =  -1026.02588562     A.U. after   13 cycles
 E2 =    -0.7118068108D+00 EUMP2 =    -0.10267376924315D+04

 The electronic state is 1-A1.
 Alpha  occ. eigenvalues -- -104.40627-104.40627 -25.74145 -10.13155 -10.13155
 Alpha  occ. eigenvalues --   -7.59759  -7.59759  -7.59747  -7.59747  -7.59744
 Alpha  occ. eigenvalues --   -7.59744  -1.98533  -1.02101  -0.64647  -0.64376
 Alpha  occ. eigenvalues --   -0.15195  -0.14624  -0.12219  -0.06923  -0.06829
 Alpha  occ. eigenvalues --   -0.05701  -0.05451  -0.04572  -0.02288
 Alpha virt. eigenvalues --    0.15885   0.16324   0.16531   0.17151   0.27718
 Alpha virt. eigenvalues --    0.28851   0.30156   0.30465   0.34602   0.34685
 Alpha virt. eigenvalues --    0.34709   0.34802   0.37226   0.37302   0.38830

 Mulliken charges:
               1
     1  F   -0.778552
     2  Cl  -0.891562
     3  Li   0.561675
     4  Cl  -0.891562
 Sum of Mulliken charges =  -2.00000

 Dipole moment (field-independent basis, Debye):
    X=              0.0000    Y=              0.0000    Z=             -1.5553  Tot=              1.5553
 Quadrupole moment (field-independent basis, Debye-Ang):
   XX=            -41.1539   YY=            -88.1478   ZZ=            -49.2406
   XY=             -0.0000   XZ=             -0.0000   YZ=              0.0000

 Normal termination of Gaussian 16 at Fri May 30 10:21:46 2025.
