 Gaussian 16, Revision B.01,
 Gaussian 16:  EM64L-G16RevB.01 20-Dec-2017

 ---------------------
 # CCSD/aug-cc-pVTZ SP
 ---------------------

 --------------------------------------------------
 Single-point energy of X- + Y- at fixed distance R
 --------------------------------------------------
 Symbolic Z-matrix:
 Charge = -2 Multiplicity = 1

                         Standard orientation:
 ---------------------------------------------------------------------
 Center     Atomic      Atomic             Coordinates (Angstroms)
 Number     Number       Type             X           Y           Z
 ---------------------------------------------------------------------
      1          9           0        0.000000    0.000000    1.769565
      2         17           0       -0.000000    2.140000   -0.430435
      3          3           0       -0.000000    0.000000   -0.430435
      4         17           0       -0.000000   -2.140000   -0.430435
 ---------------------------------------------------------------------

 SCF Done:  E(RHF) =  -1026.04982518     A.U. after   11 cycles
 E2 =    -0.7137179801D+00 EUMP2 =    -0.10267635431619D+04

 The electronic state is 1-A1.
 Alpha  occ. eigenvalues -- -104.42780-104.42780 -25.73402 -10.15291 -10.15291
 Alpha  occ. eigenvalues --   -7.61906  -7.61906  -7.61895  -7.61895  -7.61887
 Alpha  occ. eigenvalues --   -7.61887  -2.04977  -0.98319  -0.66728  -0.66575
 Alpha  occ. eigenvalues --   -0.11271  -0.10924  -0.09227  -0.09176  -0.08968
 Alpha  occ. eigenvalues --   -0.07685  -0.07518  -0.06117  -0.05715
 Alpha virt. eigenvalues --    0.15667   0.16265   0.16420   0.17758   0.27239
 Alpha virt. eigenvalues --    0.28384   0.29610   0.30215   0.34010   0.34091
 Alpha virt. eigenvalues --    0.35104   0.36241   0.36744   0.37571   0.38232

 Mulliken charges:
               1
     1  F   -0.956149
     2  Cl  -0.834355
     3  Li   0.624858
     4  Cl  -0.834355
 Sum of Mulliken charges =  -2.00000

 Dipole moment (field-independent basis, Debye):
    X=              0.0000    Y=              0.0000    Z=             -3.9888  Tot=              3.9888
 Quadrupole moment (field-independent basis, Debye-Ang):
   XX=            -40.9078   YY=            -82.8680   ZZ=            -58.2072
   XY=             -0.0000   XZ=             -0.0000   YZ=             -0.0000

 Normal termination of Gaussian 16 at Fri May 30 10:22:46 2025.
