 Gaussian 16, Revision B.01,
 Gaussian 16:  EM64L-G16RevB.01 20-Dec-2017

 ---------------------
 # CCSD/aug-cc-pVTZ SP
 ---------------------

 --------------------------------------------------
 Single-point energy of X- + Y- at fixed distance R
 --------------------------------------------------
 Symbolic Z-matrix:
 Charge = -2 Multiplicity = 1

                         Standard orientation:
 ---------------------------------------------------------------------
 Center     Atomic      Atomic             Coordinates (Angstroms)
 Number     Number       Type             X           Y           Z
 ---------------------------------------------------------------------
      1          9           0        0.000000   -0.000000    4.021739
      2         17           0        0.000000    2.140000   -0.978261
      3          3           0        0.000000    0.000000   -0.978261
      4         17           0       -0.000000   -2.140000   -0.978261
 ---------------------------------------------------------------------

 SCF Done:  E(RHF) =  -1026.07492137     A.U. after   11 cycles
 E2 =    -0.7101344092D+00 EUMP2 =    -0.10267850557801D+04

 The electronic state is 1-A1.
 Alpha  occ. eigenvalues -- -104.49273-104.49273 -25.74579 -10.21790 -10.21790
 Alpha  occ. eigenvalues --   -7.68411  -7.68410  -7.68396  -7.68396  -7.68393
 Alpha  occ. eigenvalues --   -7.68393  -2.14724  -0.98798  -0.73335  -0.73190
 Alpha  occ. eigenvalues --   -0.16608  -0.16282  -0.14574  -0.14431  -0.14064
 Alpha  occ. eigenvalues --   -0.13938  -0.09292  -0.09289  -0.09285
 Alpha virt. eigenvalues --    0.14423   0.15681   0.15884   0.19027   0.25085
 Alpha virt. eigenvalues --    0.25788   0.27247   0.28430   0.30942   0.31641
 Alpha virt. eigenvalues --    0.33315   0.33737   0.35494   0.35516   0.35892

 Mulliken charges:
               1
     1  F   -1.003485
     2  Cl  -0.769637
     3  Li   0.542759
     4  Cl  -0.769637
 Sum of Mulliken charges =  -2.00000

 Dipole moment (field-independent basis, Debye):
    X=              0.0000    Y=              0.0000    Z=            -13.7557  Tot=             13.7557
 Quadrupole moment (field-independent basis, Debye-Ang):
   XX=            -40.2866   YY=            -75.4059   ZZ=           -125.4061
   XY=             -0.0000   XZ=             -0.0000   YZ=             -0.0000

 Normal termination of Gaussian 16 at Fri May 30 10:32:09 2025.
