 Gaussian 16, Revision B.01,
 Gaussian 16:  EM64L-G16RevB.01 20-Dec-2017

 ---------------------
 # CCSD/aug-cc-pVTZ SP
 ---------------------

 --------------------------------------------------
 Single-point energy of X- + Y- at fixed distance R
 --------------------------------------------------
 Symbolic Z-matrix:
 Charge = -2 Multiplicity = 1

                         Standard orientation:
 ---------------------------------------------------------------------
 Center     Atomic      Atomic             Coordinates (Angstroms)
 Number     Number       Type             X           Y           Z
 ---------------------------------------------------------------------
      1          9           0       -0.000000    0.000000    4.826087
      2         17           0        0.000000    2.140000   -1.173913
      3          3           0        0.000000    0.000000   -1.173913
      4         17           0       -0.000000   -2.140000   -1.173913
 ---------------------------------------------------------------------

 SCF Done:  E(RHF) =  -1026.08606354     A.U. after   10 cycles
 E2 =    -0.7099351840D+00 EUMP2 =    -0.10267959987289D+04

 The electronic state is 1-A1.
 Alpha  occ. eigenvalues -- -104.50605-104.50605 -25.75587 -10.23123 -10.23123
 Alpha  occ. eigenvalues --   -7.69743  -7.69743  -7.69728  -7.69728  -7.69726
 Alpha  occ. eigenvalues --   -7.69726  -2.16176  -0.99813  -0.74675  -0.74530
 Alpha  occ. eigenvalues --   -0.17936  -0.17616  -0.15900  -0.15807  -0.15385
 Alpha  occ. eigenvalues --   -0.15303  -0.10306  -0.10305  -0.10304
 Alpha virt. eigenvalues --    0.14050   0.15340   0.15570   0.19238   0.24371
 Alpha virt. eigenvalues --    0.25033   0.26549   0.27534   0.30045   0.30953
 Alpha virt. eigenvalues --    0.31857   0.32791   0.34260   0.34537   0.34678

 Mulliken charges:
               1
     1  F   -1.001697
     2  Cl  -0.758737
     3  Li   0.519171
     4  Cl  -0.758737
 Sum of Mulliken charges =  -2.00000

 Dipole moment (field-independent basis, Debye):
    X=              0.0000    Y=              0.0000    Z=            -16.8959  Tot=             16.8959
 Quadrupole moment (field-independent basis, Debye-Ang):
   XX=            -40.2219   YY=            -74.7468   ZZ=           -161.3650
   XY=             -0.0000   XZ=             -0.0000   YZ=              0.0000

 Normal termination of Gaussian 16 at Fri May 30 10:33:01 2025.
