 Gaussian 16, Revision B.01,
 Gaussian 16:  EM64L-G16RevB.01 20-Dec-2017

 ---------------------
 # CCSD/aug-cc-pVTZ SP
 ---------------------

 --------------------------------------------------
 Single-point energy of X- + Y- at fixed distance R
 --------------------------------------------------
 Symbolic Z-matrix:
 Charge = -2 Multiplicity = 1

                         Standard orientation:
 ---------------------------------------------------------------------
 Center     Atomic      Atomic             Coordinates (Angstroms)
 Number     Number       Type             X           Y           Z
 ---------------------------------------------------------------------
      1          9           0       -0.000000    0.000000    5.630435
      2         17           0        0.000000    2.140000   -1.369565
      3          3           0        0.000000    0.000000   -1.369565
      4         17           0       -0.000000   -2.140000   -1.369565
 ---------------------------------------------------------------------

 SCF Done:  E(RHF) =  -1026.09526506     A.U. after   10 cycles
 E2 =    -0.7098642561D+00 EUMP2 =    -0.10268051293121D+04

 The electronic state is 1-A1.
 Alpha  occ. eigenvalues -- -104.51637-104.51637 -25.76457 -10.24154 -10.24154
 Alpha  occ. eigenvalues --   -7.70774  -7.70774  -7.70759  -7.70759  -7.70758
 Alpha  occ. eigenvalues --   -7.70758  -2.17264  -1.00687  -0.75710  -0.75565
 Alpha  occ. eigenvalues --   -0.18962  -0.18645  -0.16926  -0.16864  -0.16408
 Alpha  occ. eigenvalues --   -0.16353  -0.11181  -0.11179  -0.11178
 Alpha virt. eigenvalues --    0.13729   0.14988   0.15244   0.18955   0.23822
 Alpha virt. eigenvalues --    0.24363   0.25904   0.26724   0.29294   0.30350
 Alpha virt. eigenvalues --    0.30523   0.31984   0.32180   0.33324   0.33942

 Mulliken charges:
               1
     1  F   -1.000615
     2  Cl  -0.751239
     3  Li   0.503093
     4  Cl  -0.751239
 Sum of Mulliken charges =  -2.00000

 Dipole moment (field-independent basis, Debye):
    X=              0.0000    Y=             -0.0000    Z=            -19.9658  Tot=             19.9658
 Quadrupole moment (field-independent basis, Debye-Ang):
   XX=            -40.1883   YY=            -74.3674   ZZ=           -203.8889
   XY=             -0.0000   XZ=             -0.0000   YZ=              0.0000

 Normal termination of Gaussian 16 at Fri May 30 10:33:50 2025.
