 Gaussian 16, Revision B.01,
 Gaussian 16:  EM64L-G16RevB.01 20-Dec-2017

 ---------------------
 # CCSD/aug-cc-pVTZ SP
 ---------------------

 --------------------------------------------------
 Single-point energy of X- + Y- at fixed distance R
 --------------------------------------------------
 Symbolic Z-matrix:
 Charge = -2 Multiplicity = 1

                         Standard orientation:
 ---------------------------------------------------------------------
 Center     Atomic      Atomic             Coordinates (Angstroms)
 Number     Number       Type             X           Y           Z
 ---------------------------------------------------------------------
      1          9           0        0.000000    0.000000    2.010870
      2         17           0       -0.000000    2.140000   -0.489130
      3          3           0       -0.000000    0.000000   -0.489130
      4         17           0       -0.000000   -2.140000   -0.489130
 ---------------------------------------------------------------------

 SCF Done:  E(RHF) =  -1026.04928683     A.U. after   11 cycles
 E2 =    -0.7132086560D+00 EUMP2 =    -0.10267624954883D+04

 The electronic state is 1-A1.
 Alpha  occ. eigenvalues -- -104.43721-104.43721 -25.73057 -10.16231 -10.16231
 Alpha  occ. eigenvalues --   -7.62848  -7.62848  -7.62836  -7.62836  -7.62828
 Alpha  occ. eigenvalues --   -7.62828  -2.07005  -0.97610  -0.67681  -0.67535
 Alpha  occ. eigenvalues --   -0.11110  -0.11077  -0.09567  -0.09425  -0.09264
 Alpha  occ. eigenvalues --   -0.08588  -0.07769  -0.06772  -0.06696
 Alpha virt. eigenvalues --    0.15566   0.16230   0.16375   0.18051   0.27129
 Alpha virt. eigenvalues --    0.28108   0.29340   0.30280   0.33697   0.33798
 Alpha virt. eigenvalues --    0.35136   0.36450   0.36901   0.37687   0.37942

 Mulliken charges:
               1
     1  F   -0.995157
     2  Cl  -0.819739
     3  Li   0.634635
     4  Cl  -0.819739
 Sum of Mulliken charges =  -2.00000

 Dipole moment (field-independent basis, Debye):
    X=              0.0000    Y=             -0.0000    Z=             -5.1269  Tot=              5.1269
 Quadrupole moment (field-independent basis, Debye-Ang):
   XX=            -40.7955   YY=            -81.1747   ZZ=            -63.1288
   XY=             -0.0000   XZ=             -0.0000   YZ=             -0.0000

 Normal termination of Gaussian 16 at Fri May 30 10:23:48 2025.
