 Gaussian 16, Revision B.01,
 Gaussian 16:  EM64L-G16RevB.01 20-Dec-2017

 ---------------------
 # CCSD/aug-cc-pVTZ SP
 ---------------------

 --------------------------------------------------
 Single-point energy of X- + Y- at fixed distance R
 --------------------------------------------------
 Symbolic Z-matrix:
 Charge = -2 Multiplicity = 1

                         Standard orientation:
 ---------------------------------------------------------------------
 Center     Atomic      Atomic             Coordinates (Angstroms)
 Number     Number       Type             X           Y           Z
 ---------------------------------------------------------------------
      1          9           0        0.000000    0.000000    2.252174
      2         17           0       -0.000000    2.140000   -0.547826
      3          3           0       -0.000000    0.000000   -0.547826
      4         17           0       -0.000000   -2.140000   -0.547826
 ---------------------------------------------------------------------

 SCF Done:  E(RHF) =  -1026.05001387     A.U. after   11 cycles
 E2 =    -0.7125128008D+00 EUMP2 =    -0.10267625266692D+04

 The electronic state is 1-A1.
 Alpha  occ. eigenvalues -- -104.44612-104.44612 -25.72893 -10.17122 -10.17122
 Alpha  occ. eigenvalues --   -7.63741  -7.63740  -7.63728  -7.63728  -7.63720
 Alpha  occ. eigenvalues --   -7.63720  -2.08609  -0.97271  -0.68590  -0.68445
 Alpha  occ. eigenvalues --   -0.11889  -0.11678  -0.10010  -0.09979  -0.09579
 Alpha  occ. eigenvalues --   -0.09455  -0.07655  -0.07266  -0.07198
 Alpha virt. eigenvalues --    0.15438   0.16190   0.16331   0.18238   0.26935
 Alpha virt. eigenvalues --    0.27816   0.29063   0.30268   0.33374   0.33506
 Alpha virt. eigenvalues --    0.35119   0.36135   0.37220   0.37644   0.37762

 Mulliken charges:
               1
     1  F   -1.009372
     2  Cl  -0.811195
     3  Li   0.631762
     4  Cl  -0.811195
 Sum of Mulliken charges =  -2.00000

 Dipole moment (field-independent basis, Debye):
    X=              0.0000    Y=             -0.0000    Z=             -6.2564  Tot=              6.2564
 Quadrupole moment (field-independent basis, Debye-Ang):
   XX=            -40.6929   YY=            -79.8129   ZZ=            -68.6146
   XY=             -0.0000   XZ=             -0.0000   YZ=             -0.0000

 Normal termination of Gaussian 16 at Fri May 30 10:24:53 2025.
