 Gaussian 16, Revision B.01,
 Gaussian 16:  EM64L-G16RevB.01 20-Dec-2017

 ---------------------
 # CCSD/aug-cc-pVTZ SP
 ---------------------

 --------------------------------------------------
 Single-point energy of X- + Y- at fixed distance R
 --------------------------------------------------
 Symbolic Z-matrix:
 Charge = -2 Multiplicity = 1

                         Standard orientation:
 ---------------------------------------------------------------------
 Center     Atomic      Atomic             Coordinates (Angstroms)
 Number     Number       Type             X           Y           Z
 ---------------------------------------------------------------------
      1          9           0        0.000000    0.000000    2.413043
      2         17           0       -0.000000    2.140000   -0.586957
      3          3           0       -0.000000    0.000000   -0.586957
      4         17           0       -0.000000   -2.140000   -0.586957
 ---------------------------------------------------------------------

 SCF Done:  E(RHF) =  -1026.05123874     A.U. after   11 cycles
 E2 =    -0.7120708142D+00 EUMP2 =    -0.10267633095562D+04

 The electronic state is 1-A1.
 Alpha  occ. eigenvalues -- -104.45170-104.45170 -25.72880 -10.17680 -10.17680
 Alpha  occ. eigenvalues --   -7.64300  -7.64299  -7.64287  -7.64287  -7.64279
 Alpha  occ. eigenvalues --   -7.64279  -2.09501  -0.97194  -0.69160  -0.69016
 Alpha  occ. eigenvalues --   -0.12450  -0.12177  -0.10504  -0.10387  -0.10002
 Alpha  occ. eigenvalues --   -0.09910  -0.07629  -0.07457  -0.07379
 Alpha virt. eigenvalues --    0.15344   0.16161   0.16303   0.18327   0.26772
 Alpha virt. eigenvalues --    0.27617   0.28879   0.30185   0.33150   0.33317
 Alpha virt. eigenvalues --    0.35080   0.35916   0.37260   0.37443   0.37775

 Mulliken charges:
               1
     1  F   -1.011918
     2  Cl  -0.807254
     3  Li   0.626427
     4  Cl  -0.807254
 Sum of Mulliken charges =  -2.00000

 Dipole moment (field-independent basis, Debye):
    X=              0.0000    Y=             -0.0000    Z=             -6.9945  Tot=              6.9945
 Quadrupole moment (field-independent basis, Debye-Ang):
   XX=            -40.6317   YY=            -79.0636   ZZ=            -72.5678
   XY=             -0.0000   XZ=             -0.0000   YZ=             -0.0000

 Normal termination of Gaussian 16 at Fri May 30 10:25:52 2025.
