 Gaussian 16, Revision B.01,
 Gaussian 16:  EM64L-G16RevB.01 20-Dec-2017

 ---------------------
 # CCSD/aug-cc-pVTZ SP
 ---------------------

 --------------------------------------------------
 Single-point energy of X- + Y- at fixed distance R
 --------------------------------------------------
 Symbolic Z-matrix:
 Charge = -2 Multiplicity = 1

                         Standard orientation:
 ---------------------------------------------------------------------
 Center     Atomic      Atomic             Coordinates (Angstroms)
 Number     Number       Type             X           Y           Z
 ---------------------------------------------------------------------
      1          9           0        0.000000    0.000000    2.573913
      2         17           0       -0.000000    2.140000   -0.626087
      3          3           0       -0.000000    0.000000   -0.626087
      4         17           0       -0.000000   -2.140000   -0.626087
 ---------------------------------------------------------------------

 SCF Done:  E(RHF) =  -1026.05293180     A.U. after   11 cycles
 E2 =    -0.7116828135D+00 EUMP2 =    -0.10267646146110D+04

 The electronic state is 1-A1.
 Alpha  occ. eigenvalues -- -104.45697-104.45697 -25.72931 -10.18208 -10.18208
 Alpha  occ. eigenvalues --   -7.64828  -7.64828  -7.64815  -7.64815  -7.64808
 Alpha  occ. eigenvalues --   -7.64808  -2.10283  -0.97206  -0.69699  -0.69554
 Alpha  occ. eigenvalues --   -0.12988  -0.12685  -0.11016  -0.10821  -0.10521
 Alpha  occ. eigenvalues --   -0.10339  -0.07665  -0.07593  -0.07530
 Alpha virt. eigenvalues --    0.15248   0.16129   0.16275   0.18401   0.26596
 Alpha virt. eigenvalues --    0.27419   0.28698   0.30061   0.32921   0.33131
 Alpha virt. eigenvalues --    0.35015   0.35694   0.37204   0.37242   0.37746

 Mulliken charges:
               1
     1  F   -1.012141
     2  Cl  -0.803528
     3  Li   0.619197
     4  Cl  -0.803528
 Sum of Mulliken charges =  -2.00000

 Dipole moment (field-independent basis, Debye):
    X=              0.0000    Y=              0.0000    Z=             -7.7188  Tot=              7.7188
 Quadrupole moment (field-independent basis, Debye-Ang):
   XX=            -40.5765   YY=            -78.4208   ZZ=            -76.7545
   XY=             -0.0000   XZ=             -0.0000   YZ=              0.0000

 Normal termination of Gaussian 16 at Fri May 30 10:26:57 2025.
