 Gaussian 16, Revision B.01,
 Gaussian 16:  EM64L-G16RevB.01 20-Dec-2017

 ---------------------
 # CCSD/aug-cc-pVTZ SP
 ---------------------

 --------------------------------------------------
 Single-point energy of X- + Y- at fixed distance R
 --------------------------------------------------
 Symbolic Z-matrix:
 Charge = -2 Multiplicity = 1

                         Standard orientation:
 ---------------------------------------------------------------------
 Center     Atomic      Atomic             Coordinates (Angstroms)
 Number     Number       Type             X           Y           Z
 ---------------------------------------------------------------------
      1          9           0        0.000000    0.000000    2.734783
      2         17           0       -0.000000    2.140000   -0.665217
      3          3           0       -0.000000    0.000000   -0.665217
      4         17           0       -0.000000   -2.140000   -0.665217
 ---------------------------------------------------------------------

 SCF Done:  E(RHF) =  -1026.05497340     A.U. after   11 cycles
 E2 =    -0.7113544735D+00 EUMP2 =    -0.10267663278694D+04

 The electronic state is 1-A1.
 Alpha  occ. eigenvalues -- -104.46193-104.46193 -25.73033 -10.18706 -10.18706
 Alpha  occ. eigenvalues --   -7.65326  -7.65326  -7.65313  -7.65312  -7.65306
 Alpha  occ. eigenvalues --   -7.65306  -2.10979  -0.97283  -0.70207  -0.70062
 Alpha  occ. eigenvalues --   -0.13496  -0.13178  -0.11506  -0.11278  -0.11012
 Alpha  occ. eigenvalues --   -0.10800  -0.07755  -0.07728  -0.07681
 Alpha virt. eigenvalues --    0.15152   0.16093   0.16245   0.18468   0.26417
 Alpha virt. eigenvalues --    0.27222   0.28520   0.29911   0.32689   0.32950
 Alpha virt. eigenvalues --    0.34919   0.35470   0.37041   0.37081   0.37666

 Mulliken charges:
               1
     1  F   -1.011197
     2  Cl  -0.799460
     3  Li   0.610118
     4  Cl  -0.799460
 Sum of Mulliken charges =  -2.00000

 Dipole moment (field-independent basis, Debye):
    X=              0.0000    Y=              0.0000    Z=             -8.4293  Tot=              8.4293
 Quadrupole moment (field-independent basis, Debye-Ang):
   XX=            -40.5272   YY=            -77.8685   ZZ=            -81.1759
   XY=             -0.0000   XZ=             -0.0000   YZ=             -0.0000

 Normal termination of Gaussian 16 at Fri May 30 10:28:02 2025.
