 Gaussian 16, Revision B.01,
 Gaussian 16:  EM64L-G16RevB.01 20-Dec-2017

 ---------------------
 # CCSD/aug-cc-pVTZ SP
 ---------------------

 --------------------------------------------------
 Single-point energy of X- + Y- at fixed distance R
 --------------------------------------------------
 Symbolic Z-matrix:
 Charge = -2 Multiplicity = 1

                         Standard orientation:
 ---------------------------------------------------------------------
 Center     Atomic      Atomic             Coordinates (Angstroms)
 Number     Number       Type             X           Y           Z
 ---------------------------------------------------------------------
      1          9           0        0.000000    0.000000    3.056522
      2         17           0       -0.000000    2.140000   -0.743478
      3          3           0       -0.000000    0.000000   -0.743478
      4         17           0       -0.000000   -2.140000   -0.743478
 ---------------------------------------------------------------------

 SCF Done:  E(RHF) =  -1026.05970101     A.U. after   11 cycles
 E2 =    -0.7108551362D+00 EUMP2 =    -0.10267705561442D+04

 The electronic state is 1-A1.
 Alpha  occ. eigenvalues -- -104.47102-104.47102 -25.73340 -10.19617 -10.19617
 Alpha  occ. eigenvalues --   -7.66237  -7.66237  -7.66223  -7.66223  -7.66218
 Alpha  occ. eigenvalues --   -7.66218  -2.12168  -0.97566  -0.71134  -0.70989
 Alpha  occ. eigenvalues --   -0.14423  -0.14093  -0.12410  -0.12180  -0.11912
 Alpha  occ. eigenvalues --   -0.11705  -0.08050  -0.08050  -0.08025
 Alpha virt. eigenvalues --    0.14960   0.16011   0.16177   0.18595   0.26064
 Alpha virt. eigenvalues --    0.26838   0.28178   0.29568   0.32226   0.32599
 Alpha virt. eigenvalues --    0.34638   0.35022   0.36644   0.36716   0.37365

 Mulliken charges:
               1
     1  F   -1.008176
     2  Cl  -0.790309
     3  Li   0.588794
     4  Cl  -0.790309
 Sum of Mulliken charges =  -2.00000

 Dipole moment (field-independent basis, Debye):
    X=              0.0000    Y=              0.0000    Z=             -9.8133  Tot=              9.8133
 Quadrupole moment (field-independent basis, Debye-Ang):
   XX=            -40.4438   YY=            -76.9813   ZZ=            -90.7366
   XY=             -0.0000   XZ=             -0.0000   YZ=              0.0000

 Normal termination of Gaussian 16 at Fri May 30 10:29:06 2025.
