 Gaussian 16, Revision B.01,
 Gaussian 16:  EM64L-G16RevB.01 20-Dec-2017

 ---------------------
 # CCSD/aug-cc-pVTZ SP
 ---------------------

 --------------------------------------------------
 Single-point energy of X- + Y- at fixed distance R
 --------------------------------------------------
 Symbolic Z-matrix:
 Charge = -2 Multiplicity = 1

                         Standard orientation:
 ---------------------------------------------------------------------
 Center     Atomic      Atomic             Coordinates (Angstroms)
 Number     Number       Type             X           Y           Z
 ---------------------------------------------------------------------
      1          9           0        0.000000    0.000000    2.895652
      2         17           0       -0.000000    2.140000   -0.704348
      3          3           0       -0.000000    0.000000   -0.704348
      4         17           0       -0.000000   -2.140000   -0.704348
 ---------------------------------------------------------------------

 SCF Done:  E(RHF) =  -1026.05725811     A.U. after   11 cycles
 E2 =    -0.7110811508D+00 EUMP2 =    -0.10267683392627D+04

 The electronic state is 1-A1.
 Alpha  occ. eigenvalues -- -104.46661-104.46661 -25.73173 -10.19175 -10.19175
 Alpha  occ. eigenvalues --   -7.65795  -7.65795  -7.65781  -7.65781  -7.65776
 Alpha  occ. eigenvalues --   -7.65775  -2.11603  -0.97407  -0.70685  -0.70540
 Alpha  occ. eigenvalues --   -0.13974  -0.13648  -0.11971  -0.11735  -0.11475
 Alpha  occ. eigenvalues --   -0.11259  -0.07887  -0.07879  -0.07845
 Alpha virt. eigenvalues --    0.15055   0.16054   0.16213   0.18532   0.26239
 Alpha virt. eigenvalues --    0.27028   0.28347   0.29745   0.32457   0.32773
 Alpha virt. eigenvalues --    0.34792   0.35245   0.36842   0.36913   0.37537

 Mulliken charges:
               1
     1  F   -1.009715
     2  Cl  -0.794969
     3  Li   0.599653
     4  Cl  -0.794969
 Sum of Mulliken charges =  -2.00000

 Dipole moment (field-independent basis, Debye):
    X=              0.0000    Y=              0.0000    Z=             -9.1270  Tot=              9.1270
 Quadrupole moment (field-independent basis, Debye-Ang):
   XX=            -40.4831   YY=            -77.3927   ZZ=            -85.8352
   XY=             -0.0000   XZ=             -0.0000   YZ=              0.0000

 Normal termination of Gaussian 16 at Fri May 30 10:30:08 2025.
