 Gaussian 16, Revision B.01,
 Gaussian 16:  EM64L-G16RevB.01 20-Dec-2017

 ---------------------
 # CCSD/aug-cc-pVTZ SP
 ---------------------

 --------------------------------------------------
 Single-point energy of X- + Y- at fixed distance R
 --------------------------------------------------
 Symbolic Z-matrix:
 Charge = -2 Multiplicity = 1

                         Standard orientation:
 ---------------------------------------------------------------------
 Center     Atomic      Atomic             Coordinates (Angstroms)
 Number     Number       Type             X           Y           Z
 ---------------------------------------------------------------------
      1          9           0        0.000000    0.000000    3.217391
      2         17           0       -0.000000    2.140000   -0.782609
      3          3           0       -0.000000    0.000000   -0.782609
      4         17           0       -0.000000   -2.140000   -0.782609
 ---------------------------------------------------------------------

 SCF Done:  E(RHF) =  -1026.06223651     A.U. after   11 cycles
 E2 =    -0.7106688364D+00 EUMP2 =    -0.10267729053420D+04

 The electronic state is 1-A1.
 Alpha  occ. eigenvalues -- -104.47518-104.47518 -25.73528 -10.20033 -10.20033
 Alpha  occ. eigenvalues --   -7.66654  -7.66653  -7.66640  -7.66640  -7.66635
 Alpha  occ. eigenvalues --   -7.66635  -2.12684  -0.97748  -0.71557  -0.71412
 Alpha  occ. eigenvalues --   -0.14844  -0.14513  -0.12824  -0.12607  -0.12324
 Alpha  occ. eigenvalues --   -0.12130  -0.08239  -0.08235  -0.08220
 Alpha virt. eigenvalues --    0.14866   0.15965   0.16137   0.18660   0.25893
 Alpha virt. eigenvalues --    0.26651   0.28013   0.29383   0.31999   0.32429
 Alpha virt. eigenvalues --    0.34460   0.34800   0.36449   0.36503   0.37161

 Mulliken charges:
               1
     1  F   -1.006876
     2  Cl  -0.785827
     3  Li   0.578531
     4  Cl  -0.785827
 Sum of Mulliken charges =  -2.00000

 Dipole moment (field-independent basis, Debye):
    X=              0.0000    Y=              0.0000    Z=            -10.4893  Tot=             10.4893
 Quadrupole moment (field-independent basis, Debye-Ang):
   XX=            -40.4089   YY=            -76.6242   ZZ=            -95.8841
   XY=             -0.0000   XZ=             -0.0000   YZ=              0.0000

 Normal termination of Gaussian 16 at Fri May 30 10:31:12 2025.
